<?xml version="1.0" encoding="UTF-8"?>

<!-- generated on Fri Apr 17 13:58:08 2020 by SUMO Version 0.32.0
<?xml version="1.0" encoding="UTF-8"?>

<configuration xmlns:xsi="http://www.w3.org/2001/XMLSchema-instance" xsi:noNamespaceSchemaLocation="http://sumo.dlr.de/xsd/sumoConfiguration.xsd">

    <input>
        <net-file value="base.net.xml"/>
        <route-files value="trips.xml"/>
        <additional-files value="additional.xml"/>
    </input>

    <time>
        <begin value="0"/>
        <end value="22500"/>
    </time>

    <random_number>
        <seed value="97092"/>
    </random_number>

</configuration>
-->

<meandata xmlns:xsi="http://www.w3.org/2001/XMLSchema-instance" xsi:noNamespaceSchemaLocation="http://sumo.dlr.de/xsd/meandata_file.xsd">
    <interval begin="0.00" end="22500.00" id="mid">
        <edge id="1">
            <lane id="1_0" sampledSeconds="49268.20" CO_abs="2071483.768944" CO2_abs="94485288.627074" HC_abs="11645.361538" PMx_abs="1765.786833" NOx_abs="39804.242244" fuel_abs="40615.508333" electricity_abs="0"
            CO_normed="3314.374030" CO2_normed="151176.461803" HC_normed="18.632578" PMx_normed="2.825259" NOx_normed="63.686788" fuel_normed="64.984813" electricity_normed="0"
            traveltime="14.07" CO_perVeh="591.434817" CO2_perVeh="26976.744999" HC_perVeh="3.324898" PMx_perVeh="0.504154" NOx_perVeh="11.364615" fuel_perVeh="11.596241" electricity_perVeh="0"/>
            <lane id="1_1" sampledSeconds="41823.66" CO_abs="2680344.870349" CO2_abs="169802248.453316" HC_abs="16222.843340" PMx_abs="3172.374490" NOx_abs="70769.390233" fuel_abs="72990.494340" electricity_abs="0"
            CO_normed="4288.551793" CO2_normed="271683.597525" HC_normed="25.956549" PMx_normed="5.075799" NOx_normed="113.231024" fuel_normed="116.784791" electricity_normed="0"
            traveltime="9.51" CO_perVeh="609.150931" CO2_perVeh="38590.257142" HC_perVeh="3.686899" PMx_perVeh="0.720972" NOx_perVeh="16.083468" fuel_perVeh="16.588249" electricity_perVeh="0"/>
        </edge>
        <edge id="2">
            <lane id="2_0" sampledSeconds="645898.06" CO_abs="39865421.125410" CO2_abs="1040705733.943396" HC_abs="205653.887804" PMx_abs="20864.788458" NOx_abs="446510.467260" fuel_abs="447370.984995" electricity_abs="0"
            CO_normed="11430.945126" CO2_normed="298410.246292" HC_normed="58.968857" PMx_normed="5.982735" NOx_normed="128.031675" fuel_normed="128.278419" electricity_normed="0"
            traveltime="161.93" CO_perVeh="9994.615554" CO2_perVeh="260914.181308" HC_perVeh="51.559258" PMx_perVeh="5.230988" NOx_perVeh="111.944144" fuel_perVeh="112.159884" electricity_perVeh="0"/>
            <lane id="2_1" sampledSeconds="640009.52" CO_abs="38949185.635765" CO2_abs="1052398533.609770" HC_abs="201755.964977" PMx_abs="20878.178004" NOx_abs="449671.478050" fuel_abs="452396.614901" electricity_abs="0"
            CO_normed="11168.225272" CO2_normed="301763.020390" HC_normed="57.851173" PMx_normed="5.986574" NOx_normed="128.938058" fuel_normed="129.719459" electricity_normed="0"
            traveltime="150.07" CO_perVeh="9133.130324" CO2_perVeh="246775.197059" HC_perVeh="47.309424" PMx_perVeh="4.895690" NOx_perVeh="105.442724" fuel_perVeh="106.081736" electricity_perVeh="0"/>
            <lane id="2_2" sampledSeconds="334454.53" CO_abs="8032027.554257" CO2_abs="787940534.442731" HC_abs="54870.484703" PMx_abs="12027.935336" NOx_abs="304937.772256" fuel_abs="338701.834563" electricity_abs="0"
            CO_normed="2303.090338" CO2_normed="225932.769733" HC_normed="15.733472" PMx_normed="3.448870" NOx_normed="87.437354" fuel_normed="97.118806" electricity_normed="0"
            traveltime="43.92" CO_perVeh="1054.807466" CO2_perVeh="103476.432728" HC_perVeh="7.205876" PMx_perVeh="1.579571" NOx_perVeh="40.046008" fuel_perVeh="44.480079" electricity_perVeh="0"/>
        </edge>
        <edge id="3">
            <lane id="3_0" sampledSeconds="59338.24" CO_abs="2958512.113335" CO2_abs="228830749.016143" HC_abs="18873.130437" PMx_abs="4077.235164" NOx_abs="93354.032478" fuel_abs="98364.061118" electricity_abs="0"
            CO_normed="4733.619381" CO2_normed="366129.198426" HC_normed="30.197009" PMx_normed="6.523576" NOx_normed="149.366452" fuel_normed="157.382498" electricity_normed="0"
            traveltime="7.93" CO_perVeh="395.394352" CO2_perVeh="30582.394873" HC_perVeh="2.522325" PMx_perVeh="0.544908" NOx_perVeh="12.476426" fuel_perVeh="13.145998" electricity_perVeh="0"/>
            <lane id="3_1" sampledSeconds="67877.13" CO_abs="1088056.374126" CO2_abs="138718329.515812" HC_abs="8151.393278" PMx_abs="1926.811845" NOx_abs="52011.749563" fuel_abs="59629.116720" electricity_abs="0"
            CO_normed="1740.890199" CO2_normed="221949.327225" HC_normed="13.042229" PMx_normed="3.082899" NOx_normed="83.218799" fuel_normed="95.406587" electricity_normed="0"
            traveltime="7.59" CO_perVeh="121.600964" CO2_perVeh="15503.132882" HC_perVeh="0.910998" PMx_perVeh="0.215340" NOx_perVeh="5.812823" fuel_perVeh="6.664138" electricity_perVeh="0"/>
        </edge>
    </interval>
</meandata>
