<?xml version="1.0" encoding="UTF-8"?>

<!-- generated on Fri Apr 17 13:50:26 2020 by SUMO Version 0.32.0
<?xml version="1.0" encoding="UTF-8"?>

<configuration xmlns:xsi="http://www.w3.org/2001/XMLSchema-instance" xsi:noNamespaceSchemaLocation="http://sumo.dlr.de/xsd/sumoConfiguration.xsd">

    <input>
        <net-file value="base.net.xml"/>
        <route-files value="trips.xml"/>
        <additional-files value="additional.xml"/>
    </input>

    <time>
        <begin value="0"/>
        <end value="22500"/>
    </time>

    <random_number>
        <seed value="34068"/>
    </random_number>

</configuration>
-->

<meandata xmlns:xsi="http://www.w3.org/2001/XMLSchema-instance" xsi:noNamespaceSchemaLocation="http://sumo.dlr.de/xsd/meandata_file.xsd">
    <interval begin="0.00" end="22500.00" id="mid">
        <edge id="1">
            <lane id="1_0" sampledSeconds="49080.81" CO_abs="2078457.918960" CO2_abs="95662262.641834" HC_abs="11705.325388" PMx_abs="1787.576885" NOx_abs="40289.621001" fuel_abs="41121.428304" electricity_abs="0"
            CO_normed="3325.532670" CO2_normed="153059.620227" HC_normed="18.728521" PMx_normed="2.860123" NOx_normed="64.463394" fuel_normed="65.794285" electricity_normed="0"
            traveltime="14.01" CO_perVeh="593.255027" CO2_perVeh="27304.915684" HC_perVeh="3.341055" PMx_perVeh="0.510229" NOx_perVeh="11.499882" fuel_perVeh="11.737305" electricity_perVeh="0"/>
            <lane id="1_1" sampledSeconds="41772.71" CO_abs="2663410.309694" CO2_abs="168623032.963613" HC_abs="16117.600729" PMx_abs="3149.449599" NOx_abs="70268.539030" fuel_abs="72483.604800" electricity_abs="0"
            CO_normed="4261.456496" CO2_normed="269796.852742" HC_normed="25.788161" PMx_normed="5.039119" NOx_normed="112.429662" fuel_normed="115.973768" electricity_normed="0"
            traveltime="9.50" CO_perVeh="605.479732" CO2_perVeh="38333.496124" HC_perVeh="3.664055" PMx_perVeh="0.715972" NOx_perVeh="15.974323" fuel_perVeh="16.477879" electricity_perVeh="0"/>
        </edge>
        <edge id="2">
            <lane id="2_0" sampledSeconds="646423.71" CO_abs="39841858.309027" CO2_abs="1038245458.799054" HC_abs="205488.136199" PMx_abs="20819.850521" NOx_abs="445491.517181" fuel_abs="446313.432792" electricity_abs="0"
            CO_normed="11424.188762" CO2_normed="297704.791053" HC_normed="58.921329" PMx_normed="5.969850" NOx_normed="127.739503" fuel_normed="127.975178" electricity_normed="0"
            traveltime="162.29" CO_perVeh="10002.677553" CO2_perVeh="260661.399486" HC_perVeh="51.589751" PMx_perVeh="5.227022" NOx_perVeh="111.844883" fuel_perVeh="112.051233" electricity_perVeh="0"/>
            <lane id="2_1" sampledSeconds="642692.04" CO_abs="39148221.107773" CO2_abs="1056891945.729416" HC_abs="202770.566512" PMx_abs="20988.247170" NOx_abs="451757.949211" fuel_abs="454328.199821" electricity_abs="0"
            CO_normed="11225.296375" CO2_normed="303051.453973" HC_normed="58.142098" PMx_normed="6.018135" NOx_normed="129.536330" fuel_normed="130.273319" electricity_normed="0"
            traveltime="151.09" CO_perVeh="9203.060060" CO2_perVeh="248456.756877" HC_perVeh="47.667803" PMx_perVeh="4.933969" NOx_perVeh="106.200369" fuel_perVeh="106.804590" electricity_perVeh="0"/>
            <lane id="2_2" sampledSeconds="335238.37" CO_abs="8085046.316013" CO2_abs="790492199.749394" HC_abs="55174.028212" PMx_abs="12086.714289" NOx_abs="306078.551927" fuel_abs="339798.676259" electricity_abs="0"
            CO_normed="2318.292850" CO2_normed="226664.430036" HC_normed="15.820510" PMx_normed="3.465725" NOx_normed="87.764459" fuel_normed="97.433312" electricity_normed="0"
            traveltime="43.93" CO_perVeh="1059.491919" CO2_perVeh="103588.781718" HC_perVeh="7.230192" PMx_perVeh="1.583884" NOx_perVeh="40.109573" fuel_perVeh="44.528372" electricity_perVeh="0"/>
        </edge>
        <edge id="3">
            <lane id="3_0" sampledSeconds="59361.16" CO_abs="2942038.898858" CO2_abs="227927857.975766" HC_abs="18775.296878" PMx_abs="4055.971328" NOx_abs="92944.970394" fuel_abs="97975.953227" electricity_abs="0"
            CO_normed="4707.262238" CO2_normed="364684.572761" HC_normed="30.040475" PMx_normed="6.489554" NOx_normed="148.711953" fuel_normed="156.761525" electricity_normed="0"
            traveltime="7.93" CO_perVeh="392.999407" CO2_perVeh="30446.746692" HC_perVeh="2.508016" PMx_perVeh="0.541799" NOx_perVeh="12.415648" fuel_perVeh="13.087689" electricity_perVeh="0"/>
            <lane id="3_1" sampledSeconds="67857.94" CO_abs="1084054.896069" CO2_abs="138828134.601575" HC_abs="8134.270129" PMx_abs="1922.649917" NOx_abs="52010.470338" fuel_abs="59676.322276" electricity_abs="0"
            CO_normed="1734.487834" CO2_normed="222125.015363" HC_normed="13.014832" PMx_normed="3.076240" NOx_normed="83.216753" fuel_normed="95.482116" electricity_normed="0"
            traveltime="7.59" CO_perVeh="121.210906" CO2_perVeh="15522.723061" HC_perVeh="0.909513" PMx_perVeh="0.214976" NOx_perVeh="5.815422" fuel_perVeh="6.672560" electricity_perVeh="0"/>
        </edge>
    </interval>
</meandata>
