<?xml version="1.0" encoding="UTF-8"?>

<!-- generated on Fri Apr 17 13:46:56 2020 by SUMO Version 0.32.0
<?xml version="1.0" encoding="UTF-8"?>

<configuration xmlns:xsi="http://www.w3.org/2001/XMLSchema-instance" xsi:noNamespaceSchemaLocation="http://sumo.dlr.de/xsd/sumoConfiguration.xsd">

    <input>
        <net-file value="base.net.xml"/>
        <route-files value="trips.xml"/>
        <additional-files value="additional.xml"/>
    </input>

    <time>
        <begin value="0"/>
        <end value="22500"/>
    </time>

    <random_number>
        <seed value="65162"/>
    </random_number>

</configuration>
-->

<meandata xmlns:xsi="http://www.w3.org/2001/XMLSchema-instance" xsi:noNamespaceSchemaLocation="http://sumo.dlr.de/xsd/meandata_file.xsd">
    <interval begin="0.00" end="22500.00" id="mid">
        <edge id="1">
            <lane id="1_0" sampledSeconds="48833.74" CO_abs="2079532.184569" CO2_abs="96748403.112500" HC_abs="11736.239679" PMx_abs="1805.925687" NOx_abs="40721.013818" fuel_abs="41588.302309" electricity_abs="0"
            CO_normed="3327.251495" CO2_normed="154797.444980" HC_normed="18.777983" PMx_normed="2.889481" NOx_normed="65.153622" fuel_normed="66.541284" electricity_normed="0"
            traveltime="13.83" CO_perVeh="588.790381" CO2_perVeh="27392.953833" HC_perVeh="3.322952" PMx_perVeh="0.511323" NOx_perVeh="11.529584" fuel_perVeh="11.775145" electricity_perVeh="0"/>
            <lane id="1_1" sampledSeconds="41629.51" CO_abs="2676674.393824" CO2_abs="169038926.243508" HC_abs="16188.073846" PMx_abs="3159.469660" NOx_abs="70463.317614" fuel_abs="72662.380566" electricity_abs="0"
            CO_normed="4282.679030" CO2_normed="270462.281990" HC_normed="25.900918" PMx_normed="5.055151" NOx_normed="112.741308" fuel_normed="116.259809" electricity_normed="0"
            traveltime="9.53" CO_perVeh="612.442922" CO2_perVeh="38677.358083" HC_perVeh="3.703951" PMx_perVeh="0.722910" NOx_perVeh="16.122529" fuel_perVeh="16.625691" electricity_perVeh="0"/>
        </edge>
        <edge id="2">
            <lane id="2_0" sampledSeconds="644137.76" CO_abs="39594586.886830" CO2_abs="1034894204.552787" HC_abs="204283.489073" PMx_abs="20725.705698" NOx_abs="443864.177198" fuel_abs="444872.761183" electricity_abs="0"
            CO_normed="11353.286563" CO2_normed="296743.857936" HC_normed="58.575911" PMx_normed="5.942855" NOx_normed="127.272882" fuel_normed="127.562082" electricity_normed="0"
            traveltime="161.36" CO_perVeh="9918.749388" CO2_perVeh="259248.979851" HC_perVeh="51.174590" PMx_perVeh="5.191949" NOx_perVeh="111.191400" fuel_perVeh="111.444058" electricity_perVeh="0"/>
            <lane id="2_1" sampledSeconds="638263.33" CO_abs="38833969.587562" CO2_abs="1051031671.316705" HC_abs="201202.383419" PMx_abs="20855.687372" NOx_abs="449159.854649" fuel_abs="451808.972432" electricity_abs="0"
            CO_normed="11135.188412" CO2_normed="301371.088550" HC_normed="57.692440" PMx_normed="5.980125" NOx_normed="128.791356" fuel_normed="129.550960" electricity_normed="0"
            traveltime="149.99" CO_perVeh="9126.072630" CO2_perVeh="246994.872558" HC_perVeh="47.283025" PMx_perVeh="4.901135" NOx_perVeh="105.553604" fuel_perVeh="106.176153" electricity_perVeh="0"/>
            <lane id="2_2" sampledSeconds="335266.00" CO_abs="8152503.320728" CO2_abs="792592356.372094" HC_abs="55535.293714" PMx_abs="12142.871823" NOx_abs="307116.719727" fuel_abs="340701.439414" electricity_abs="0"
            CO_normed="2337.635361" CO2_normed="227266.625483" HC_normed="15.924099" PMx_normed="3.481827" NOx_normed="88.062142" fuel_normed="97.692169" electricity_normed="0"
            traveltime="43.99" CO_perVeh="1069.757775" CO2_perVeh="104002.636038" HC_perVeh="7.287248" PMx_perVeh="1.593367" NOx_perVeh="40.299339" fuel_perVeh="44.706270" electricity_perVeh="0"/>
        </edge>
        <edge id="3">
            <lane id="3_0" sampledSeconds="59046.76" CO_abs="2944171.169010" CO2_abs="227489625.919522" HC_abs="18776.289898" PMx_abs="4056.078193" NOx_abs="92828.000227" fuel_abs="97787.570512" electricity_abs="0"
            CO_normed="4710.673870" CO2_normed="363983.401471" HC_normed="30.042064" PMx_normed="6.489725" NOx_normed="148.524800" fuel_normed="156.460113" electricity_normed="0"
            traveltime="7.93" CO_perVeh="395.330582" CO2_perVeh="30546.323926" HC_perVeh="2.521199" PMx_perVeh="0.544633" NOx_perVeh="12.464543" fuel_perVeh="13.130492" electricity_perVeh="0"/>
            <lane id="3_1" sampledSeconds="68130.81" CO_abs="1092398.852736" CO2_abs="139173452.767724" HC_abs="8182.663675" PMx_abs="1933.314264" NOx_abs="52186.054736" fuel_abs="59824.755192" electricity_abs="0"
            CO_normed="1747.838164" CO2_normed="222677.524428" HC_normed="13.092262" PMx_normed="3.093303" NOx_normed="83.497688" fuel_normed="95.719608" electricity_normed="0"
            traveltime="7.59" CO_perVeh="121.659106" CO2_perVeh="15499.574859" HC_perVeh="0.911293" PMx_perVeh="0.215311" NOx_perVeh="5.811896" fuel_perVeh="6.662609" electricity_perVeh="0"/>
        </edge>
    </interval>
</meandata>
