<?xml version="1.0" encoding="UTF-8"?>

<!-- generated on Fri Apr 17 14:02:05 2020 by SUMO Version 0.32.0
<?xml version="1.0" encoding="UTF-8"?>

<configuration xmlns:xsi="http://www.w3.org/2001/XMLSchema-instance" xsi:noNamespaceSchemaLocation="http://sumo.dlr.de/xsd/sumoConfiguration.xsd">

    <input>
        <net-file value="base.net.xml"/>
        <route-files value="trips.xml"/>
        <additional-files value="additional.xml"/>
    </input>

    <time>
        <begin value="0"/>
        <end value="22500"/>
    </time>

    <random_number>
        <seed value="17727"/>
    </random_number>

</configuration>
-->

<meandata xmlns:xsi="http://www.w3.org/2001/XMLSchema-instance" xsi:noNamespaceSchemaLocation="http://sumo.dlr.de/xsd/meandata_file.xsd">
    <interval begin="0.00" end="22500.00" id="mid">
        <edge id="1">
            <lane id="1_0" sampledSeconds="49202.24" CO_abs="2077365.825781" CO2_abs="95892102.879293" HC_abs="11705.997755" PMx_abs="1792.657341" NOx_abs="40392.527272" fuel_abs="41220.221017" electricity_abs="0"
            CO_normed="3323.785321" CO2_normed="153427.364607" HC_normed="18.729596" PMx_normed="2.868252" NOx_normed="64.628044" fuel_normed="65.952354" electricity_normed="0"
            traveltime="13.97" CO_perVeh="589.622585" CO2_perVeh="27217.232957" HC_perVeh="3.322535" PMx_perVeh="0.508813" NOx_perVeh="11.464686" fuel_perVeh="11.699612" electricity_perVeh="0"/>
            <lane id="1_1" sampledSeconds="41934.92" CO_abs="2705797.624943" CO2_abs="170305541.394353" HC_abs="16350.970294" PMx_abs="3185.057101" NOx_abs="71018.927993" fuel_abs="73206.845897" electricity_abs="0"
            CO_normed="4329.276200" CO2_normed="272488.866231" HC_normed="26.161552" PMx_normed="5.096091" NOx_normed="113.630285" fuel_normed="117.130953" electricity_normed="0"
            traveltime="9.58" CO_perVeh="617.826061" CO2_perVeh="38886.574804" HC_perVeh="3.733485" PMx_perVeh="0.727257" NOx_perVeh="16.216048" fuel_perVeh="16.715625" electricity_perVeh="0"/>
        </edge>
        <edge id="2">
            <lane id="2_0" sampledSeconds="645338.62" CO_abs="39736981.654390" CO2_abs="1037197746.682582" HC_abs="204987.212905" PMx_abs="20791.643364" NOx_abs="444986.720823" fuel_abs="445863.006507" electricity_abs="0"
            CO_normed="11394.116603" CO2_normed="297404.371809" HC_normed="58.777695" PMx_normed="5.961762" NOx_normed="127.594759" fuel_normed="127.846023" electricity_normed="0"
            traveltime="162.00" CO_perVeh="9975.091524" CO2_perVeh="260365.584411" HC_perVeh="51.457512" PMx_perVeh="5.219283" NOx_perVeh="111.704087" fuel_perVeh="111.924059" electricity_perVeh="0"/>
            <lane id="2_1" sampledSeconds="641641.68" CO_abs="39035425.280257" CO2_abs="1054502957.816163" HC_abs="202197.008055" PMx_abs="20920.378189" NOx_abs="450570.805682" fuel_abs="453301.254537" electricity_abs="0"
            CO_normed="11192.953485" CO2_normed="302366.439517" HC_normed="57.977637" PMx_normed="5.998675" NOx_normed="129.195930" fuel_normed="129.978854" electricity_normed="0"
            traveltime="150.16" CO_perVeh="9135.463225" CO2_perVeh="246785.398721" HC_perVeh="47.320180" PMx_perVeh="4.895998" NOx_perVeh="105.447116" fuel_perVeh="106.086123" electricity_perVeh="0"/>
            <lane id="2_2" sampledSeconds="334898.19" CO_abs="8179496.963309" CO2_abs="794822947.771077" HC_abs="55710.639143" PMx_abs="12187.415239" NOx_abs="308061.267956" fuel_abs="341660.260971" electricity_abs="0"
            CO_normed="2345.375473" CO2_normed="227906.221583" HC_normed="15.974377" PMx_normed="3.494599" NOx_normed="88.332980" fuel_normed="97.967100" electricity_normed="0"
            traveltime="44.00" CO_perVeh="1074.640700" CO2_perVeh="104425.625785" HC_perVeh="7.319389" PMx_perVeh="1.601210" NOx_perVeh="40.473782" fuel_perVeh="44.888093" electricity_perVeh="0"/>
        </edge>
        <edge id="3">
            <lane id="3_0" sampledSeconds="59508.03" CO_abs="2957793.930789" CO2_abs="228699762.538322" HC_abs="18866.499046" PMx_abs="4074.522445" NOx_abs="93299.188342" fuel_abs="98307.757191" electricity_abs="0"
            CO_normed="4732.470289" CO2_normed="365919.620061" HC_normed="30.186398" PMx_normed="6.519236" NOx_normed="149.278701" fuel_normed="157.292412" electricity_normed="0"
            traveltime="7.93" CO_perVeh="394.180527" CO2_perVeh="30478.456290" HC_perVeh="2.514309" PMx_perVeh="0.543005" NOx_perVeh="12.433836" fuel_perVeh="13.101320" electricity_perVeh="0"/>
            <lane id="3_1" sampledSeconds="67744.92" CO_abs="1076377.632865" CO2_abs="138083979.919328" HC_abs="8082.151306" PMx_abs="1910.081409" NOx_abs="51715.345861" fuel_abs="59356.443867" electricity_abs="0"
            CO_normed="1722.204213" CO2_normed="220934.367871" HC_normed="12.931442" PMx_normed="3.056130" NOx_normed="82.744553" fuel_normed="94.970310" electricity_normed="0"
            traveltime="7.59" CO_perVeh="120.573373" CO2_perVeh="15467.853179" HC_perVeh="0.905344" PMx_perVeh="0.213963" NOx_perVeh="5.793035" fuel_perVeh="6.648974" electricity_perVeh="0"/>
        </edge>
    </interval>
</meandata>
