<?xml version="1.0" encoding="UTF-8"?>

<!-- generated on Fri Apr 17 13:54:02 2020 by SUMO Version 0.32.0
<?xml version="1.0" encoding="UTF-8"?>

<configuration xmlns:xsi="http://www.w3.org/2001/XMLSchema-instance" xsi:noNamespaceSchemaLocation="http://sumo.dlr.de/xsd/sumoConfiguration.xsd">

    <input>
        <net-file value="base.net.xml"/>
        <route-files value="trips.xml"/>
        <additional-files value="additional.xml"/>
    </input>

    <time>
        <begin value="0"/>
        <end value="22500"/>
    </time>

    <random_number>
        <seed value="14648"/>
    </random_number>

</configuration>
-->

<meandata xmlns:xsi="http://www.w3.org/2001/XMLSchema-instance" xsi:noNamespaceSchemaLocation="http://sumo.dlr.de/xsd/meandata_file.xsd">
    <interval begin="0.00" end="22500.00" id="mid">
        <edge id="1">
            <lane id="1_0" sampledSeconds="48927.37" CO_abs="2053653.415172" CO2_abs="95497996.044237" HC_abs="11589.551815" PMx_abs="1785.567491" NOx_abs="40223.561712" fuel_abs="41050.797200" electricity_abs="0"
            CO_normed="3285.845464" CO2_normed="152796.793671" HC_normed="18.543283" PMx_normed="2.856908" NOx_normed="64.357699" fuel_normed="65.681276" electricity_normed="0"
            traveltime="13.85" CO_perVeh="581.327550" CO2_perVeh="27032.612036" HC_perVeh="3.280654" PMx_perVeh="0.505440" NOx_perVeh="11.386081" fuel_perVeh="11.620247" electricity_perVeh="0"/>
            <lane id="1_1" sampledSeconds="41655.23" CO_abs="2676421.750722" CO2_abs="169000992.271816" HC_abs="16186.714043" PMx_abs="3160.976416" NOx_abs="70465.857873" fuel_abs="72646.070979" electricity_abs="0"
            CO_normed="4282.274801" CO2_normed="270401.587635" HC_normed="25.898742" PMx_normed="5.057562" NOx_normed="112.745373" fuel_normed="116.233714" electricity_normed="0"
            traveltime="9.53" CO_perVeh="612.474135" CO2_perVeh="38674.299586" HC_perVeh="3.704178" PMx_perVeh="0.723360" NOx_perVeh="16.125454" fuel_perVeh="16.624375" electricity_perVeh="0"/>
        </edge>
        <edge id="2">
            <lane id="2_0" sampledSeconds="648650.13" CO_abs="40056628.273330" CO2_abs="1045471158.600324" HC_abs="206637.065420" PMx_abs="20964.934212" NOx_abs="448604.610011" fuel_abs="449419.509601" electricity_abs="0"
            CO_normed="11485.771548" CO2_normed="299776.676301" HC_normed="59.250771" PMx_normed="6.011451" NOx_normed="128.632146" fuel_normed="128.865809" electricity_normed="0"
            traveltime="162.51" CO_perVeh="10035.793850" CO2_perVeh="261932.505946" HC_perVeh="51.770882" PMx_perVeh="5.252558" NOx_perVeh="112.393468" fuel_perVeh="112.597634" electricity_perVeh="0"/>
            <lane id="2_1" sampledSeconds="643926.80" CO_abs="39257197.815525" CO2_abs="1058567628.637452" HC_abs="203304.585184" PMx_abs="21028.243031" NOx_abs="452593.843741" fuel_abs="455048.550869" electricity_abs="0"
            CO_normed="11256.544176" CO2_normed="303531.936527" HC_normed="58.295222" PMx_normed="6.029604" NOx_normed="129.776013" fuel_normed="130.479871" electricity_normed="0"
            traveltime="151.29" CO_perVeh="9223.151627" CO2_perVeh="248701.646827" HC_perVeh="47.764719" PMx_perVeh="4.940411" NOx_perVeh="106.333154" fuel_perVeh="106.909867" electricity_perVeh="0"/>
            <lane id="2_2" sampledSeconds="336154.39" CO_abs="8257969.168969" CO2_abs="796791095.681814" HC_abs="56116.210986" PMx_abs="12240.540770" NOx_abs="309045.304737" fuel_abs="342506.290599" electricity_abs="0"
            CO_normed="2367.876464" CO2_normed="228470.565070" HC_normed="16.090670" PMx_normed="3.509832" NOx_normed="88.615141" fuel_normed="98.209689" electricity_normed="0"
            traveltime="44.11" CO_perVeh="1083.689370" CO2_perVeh="104562.516829" HC_perVeh="7.364104" PMx_perVeh="1.606320" NOx_perVeh="40.555868" fuel_perVeh="44.946938" electricity_perVeh="0"/>
        </edge>
        <edge id="3">
            <lane id="3_0" sampledSeconds="59521.33" CO_abs="2953915.808391" CO2_abs="228186536.345541" HC_abs="18837.606167" PMx_abs="4067.584934" NOx_abs="93109.048739" fuel_abs="98087.142887" electricity_abs="0"
            CO_normed="4726.265293" CO2_normed="365098.458153" HC_normed="30.140170" PMx_normed="6.508136" NOx_normed="148.974478" fuel_normed="156.939429" electricity_normed="0"
            traveltime="7.93" CO_perVeh="393.628942" CO2_perVeh="30407.374727" HC_perVeh="2.510236" PMx_perVeh="0.542033" NOx_perVeh="12.407400" fuel_perVeh="13.070765" electricity_perVeh="0"/>
            <lane id="3_1" sampledSeconds="67748.60" CO_abs="1087475.771898" CO2_abs="138800242.377596" HC_abs="8150.235119" PMx_abs="1925.976326" NOx_abs="52029.247808" fuel_abs="59664.329584" electricity_abs="0"
            CO_normed="1739.961235" CO2_normed="222080.387804" HC_normed="13.040376" PMx_normed="3.081562" NOx_normed="83.246796" fuel_normed="95.462927" electricity_normed="0"
            traveltime="7.59" CO_perVeh="121.812696" CO2_perVeh="15547.593893" HC_perVeh="0.912942" PMx_perVeh="0.215737" NOx_perVeh="5.828013" fuel_perVeh="6.683250" electricity_perVeh="0"/>
        </edge>
    </interval>
</meandata>
