<?xml version="1.0" encoding="UTF-8"?>

<!-- generated on Thu Apr 16 21:04:23 2020 by SUMO Version 0.32.0
<?xml version="1.0" encoding="UTF-8"?>

<configuration xmlns:xsi="http://www.w3.org/2001/XMLSchema-instance" xsi:noNamespaceSchemaLocation="http://sumo.dlr.de/xsd/sumoConfiguration.xsd">

    <input>
        <net-file value="base.net.xml"/>
        <route-files value="base.rou.xml"/>
        <additional-files value="additional.xml"/>
    </input>

    <time>
        <begin value="0"/>
        <end value="50000"/>
    </time>

    <random_number>
        <seed value="58370"/>
    </random_number>

</configuration>
-->

<meandata xmlns:xsi="http://www.w3.org/2001/XMLSchema-instance" xsi:noNamespaceSchemaLocation="http://sumo.dlr.de/xsd/meandata_file.xsd">
    <interval begin="0.00" end="50000.00" id="mid">
        <edge id="1">
            <lane id="1_0" sampledSeconds="983289.21" CO_abs="88846076.822522" CO2_abs="2514089022.271563" HC_abs="463727.848292" PMx_abs="54136.943042" NOx_abs="1110165.662115" fuel_abs="1080725.392115" electricity_abs="0"
            CO_normed="31984.587656" CO2_normed="905072.048018" HC_normed="166.942025" PMx_normed="19.489299" NOx_normed="399.659638" fuel_normed="389.061141" electricity_normed="0"
            traveltime="94.99" CO_perVeh="8582.583253" CO2_perVeh="242862.477564" HC_perVeh="44.796383" PMx_perVeh="5.229661" NOx_perVeh="107.242656" fuel_perVeh="104.398708" electricity_perVeh="0"/>
            <lane id="1_1" sampledSeconds="960731.14" CO_abs="88119229.664426" CO2_abs="2608408707.851435" HC_abs="462774.414157" PMx_abs="56340.772163" NOx_abs="1154349.426021" fuel_abs="1121266.482340" electricity_abs="0"
            CO_normed="31722.922679" CO2_normed="939027.134827" HC_normed="166.598789" PMx_normed="20.282678" NOx_normed="415.565793" fuel_normed="403.655934" electricity_normed="0"
            traveltime="93.42" CO_perVeh="8568.288348" CO2_perVeh="253629.066242" HC_perVeh="44.997949" PMx_perVeh="5.478305" NOx_perVeh="112.243364" fuel_perVeh="109.026538" electricity_perVeh="0"/>
        </edge>
        <edge id="2">
            <lane id="2_0" sampledSeconds="1762127.90" CO_abs="136881916.011995" CO2_abs="3332654842.677715" HC_abs="699807.245644" PMx_abs="70586.805287" NOx_abs="1450164.879273" fuel_abs="1432619.653759" electricity_abs="0"
            CO_normed="9885.153413" CO2_normed="240673.168177" HC_normed="50.537735" PMx_normed="5.097543" NOx_normed="104.726049" fuel_normed="103.458992" electricity_normed="0"
            traveltime="348.65" CO_perVeh="27083.235194" CO2_perVeh="659393.713611" HC_perVeh="138.462733" PMx_perVeh="13.966191" NOx_perVeh="286.927285" fuel_perVeh="283.455815" electricity_perVeh="0"/>
            <lane id="2_1" sampledSeconds="5894309.18" CO_abs="539578304.508284" CO2_abs="11467562551.674757" HC_abs="2726056.387765" PMx_abs="262710.964742" NOx_abs="5146167.675278" fuel_abs="4929626.363112" electricity_abs="0"
            CO_normed="38966.537537" CO2_normed="828148.950572" HC_normed="196.866660" PMx_normed="18.972106" NOx_normed="371.638990" fuel_normed="356.001101" electricity_normed="0"
            traveltime="1107.21" CO_perVeh="101356.559188" CO2_perVeh="2154113.078310" HC_perVeh="512.073398" PMx_perVeh="49.348684" NOx_perVeh="966.676837" fuel_perVeh="926.000846" electricity_perVeh="0"/>
            <lane id="2_2" sampledSeconds="4821082.08" CO_abs="437792370.370797" CO2_abs="12923126304.792702" HC_abs="2298144.315953" PMx_abs="278683.943339" NOx_abs="5717224.312031" fuel_abs="5555215.542375" electricity_abs="0"
            CO_normed="31615.898362" CO2_normed="933264.888611" HC_normed="165.964284" PMx_normed="20.125621" NOx_normed="412.878787" fuel_normed="401.179056" electricity_normed="0"
            traveltime="472.12" CO_perVeh="42872.524285" CO2_perVeh="1265547.514833" HC_perVeh="225.054740" PMx_perVeh="27.291211" NOx_perVeh="559.881475" fuel_perVeh="544.016135" electricity_perVeh="0"/>
        </edge>
        <edge id="3">
            <lane id="3_0" sampledSeconds="487250.75" CO_abs="45192074.709516" CO2_abs="1363555729.734873" HC_abs="237974.819268" PMx_abs="29489.505789" NOx_abs="603889.244072" fuel_abs="586145.560608" electricity_abs="0"
            CO_normed="32538.293791" CO2_normed="981760.125409" HC_normed="171.341870" PMx_normed="21.232444" NOx_normed="434.800256" fuel_normed="422.024804" electricity_normed="0"
            traveltime="45.94" CO_perVeh="4260.531030" CO2_perVeh="128550.670324" HC_perVeh="22.435330" PMx_perVeh="2.780155" NOx_perVeh="56.932302" fuel_perVeh="55.259498" electricity_perVeh="0"/>
            <lane id="3_1" sampledSeconds="474494.93" CO_abs="43739066.174084" CO2_abs="1341283233.213660" HC_abs="230851.533691" PMx_abs="28995.478931" NOx_abs="593989.187744" fuel_abs="576570.785463" electricity_abs="0"
            CO_normed="31492.127645" CO2_normed="965723.927914" HC_normed="166.213104" PMx_normed="20.876745" NOx_normed="427.672215" fuel_normed="415.130966" electricity_normed="0"
            traveltime="45.09" CO_perVeh="4156.738685" CO2_perVeh="127468.745708" HC_perVeh="21.938957" PMx_perVeh="2.755583" NOx_perVeh="56.449715" fuel_perVeh="54.794359" electricity_perVeh="0"/>
        </edge>
        <edge id="4">
            <lane id="4_0" sampledSeconds="94455.72" CO_abs="7623115.529269" CO2_abs="510789816.325284" HC_abs="45819.916099" PMx_abs="9174.938869" NOx_abs="209039.142797" fuel_abs="219566.164748" electricity_abs="0"
            CO_normed="5488.643181" CO2_normed="367768.667754" HC_normed="32.990340" PMx_normed="6.605956" NOx_normed="150.508183" fuel_normed="158.087639" electricity_normed="0"
            traveltime="8.67" CO_perVeh="700.097950" CO2_perVeh="46910.334985" HC_perVeh="4.208047" PMx_perVeh="0.842616" NOx_perVeh="19.197909" fuel_perVeh="20.164698" electricity_perVeh="0"/>
            <lane id="4_1" sampledSeconds="89371.67" CO_abs="7379488.057796" CO2_abs="488506032.507561" HC_abs="44203.573496" PMx_abs="8825.032424" NOx_abs="200319.546113" fuel_abs="209987.328362" electricity_abs="0"
            CO_normed="5313.231402" CO2_normed="351724.343405" HC_normed="31.826573" PMx_normed="6.354023" NOx_normed="144.230073" fuel_normed="151.190876" electricity_normed="0"
            traveltime="8.72" CO_perVeh="719.704309" CO2_perVeh="47642.857287" HC_perVeh="4.311072" PMx_perVeh="0.860685" NOx_perVeh="19.536699" fuel_perVeh="20.479576" electricity_perVeh="0"/>
        </edge>
    </interval>
</meandata>
