<?xml version="1.0" encoding="UTF-8"?>

<!-- generated on Thu Apr 16 20:55:23 2020 by SUMO Version 0.32.0
<?xml version="1.0" encoding="UTF-8"?>

<configuration xmlns:xsi="http://www.w3.org/2001/XMLSchema-instance" xsi:noNamespaceSchemaLocation="http://sumo.dlr.de/xsd/sumoConfiguration.xsd">

    <input>
        <net-file value="base.net.xml"/>
        <route-files value="base.rou.xml"/>
        <additional-files value="additional.xml"/>
    </input>

    <time>
        <begin value="0"/>
        <end value="50000"/>
    </time>

    <random_number>
        <seed value="86619"/>
    </random_number>

</configuration>
-->

<meandata xmlns:xsi="http://www.w3.org/2001/XMLSchema-instance" xsi:noNamespaceSchemaLocation="http://sumo.dlr.de/xsd/meandata_file.xsd">
    <interval begin="0.00" end="50000.00" id="mid">
        <edge id="1">
            <lane id="1_0" sampledSeconds="981957.61" CO_abs="89606089.168101" CO2_abs="2542313918.155840" HC_abs="467877.328855" PMx_abs="54838.344379" NOx_abs="1123299.469580" fuel_abs="1092858.007122" electricity_abs="0"
            CO_normed="32258.192101" CO2_normed="915233.010536" HC_normed="168.435838" PMx_normed="19.741804" NOx_normed="404.387809" fuel_normed="393.428883" electricity_normed="0"
            traveltime="95.04" CO_perVeh="8673.017610" CO2_perVeh="246071.819311" HC_perVeh="45.286078" PMx_perVeh="5.307830" NOx_perVeh="108.724710" fuel_perVeh="105.778266" electricity_perVeh="0"/>
            <lane id="1_1" sampledSeconds="947088.46" CO_abs="87201490.248716" CO2_abs="2611841690.121352" HC_abs="458714.496926" PMx_abs="56456.743796" NOx_abs="1156250.252555" fuel_abs="1122741.245011" electricity_abs="0"
            CO_normed="31392.536490" CO2_normed="940263.008444" HC_normed="165.137219" PMx_normed="20.324428" NOx_normed="416.250091" fuel_normed="404.186848" electricity_normed="0"
            traveltime="92.27" CO_perVeh="8495.226545" CO2_perVeh="254447.335641" HC_perVeh="44.688268" PMx_perVeh="5.500053" NOx_perVeh="112.642660" fuel_perVeh="109.378191" electricity_perVeh="0"/>
        </edge>
        <edge id="2">
            <lane id="2_0" sampledSeconds="379326.61" CO_abs="12838052.551491" CO2_abs="593261585.315299" HC_abs="70682.656912" PMx_abs="9141.745653" NOx_abs="230733.113402" fuel_abs="255023.068944" electricity_abs="0"
            CO_normed="927.121147" CO2_normed="42843.364235" HC_normed="5.104465" PMx_normed="0.660186" NOx_normed="16.662772" fuel_normed="18.416912" electricity_normed="0"
            traveltime="104.64" CO_perVeh="3541.616962" CO2_perVeh="163662.306645" HC_perVeh="19.499133" PMx_perVeh="2.521922" NOx_perVeh="63.652046" fuel_perVeh="70.352884" electricity_perVeh="0"/>
            <lane id="2_1" sampledSeconds="5620489.02" CO_abs="521836185.780548" CO2_abs="11990438147.291819" HC_abs="2657753.291619" PMx_abs="269685.678423" NOx_abs="5356545.444034" fuel_abs="5154368.443137" electricity_abs="0"
            CO_normed="37685.261160" CO2_normed="865909.274428" HC_normed="191.934039" PMx_normed="19.475796" NOx_normed="386.831767" fuel_normed="372.231222" electricity_normed="0"
            traveltime="836.20" CO_perVeh="77636.815321" CO2_perVeh="1783892.066943" HC_perVeh="395.410489" PMx_perVeh="40.122816" NOx_perVeh="796.926585" fuel_perVeh="766.847455" electricity_perVeh="0"/>
            <lane id="2_2" sampledSeconds="4798347.33" CO_abs="436805479.554327" CO2_abs="12955398603.973228" HC_abs="2294504.078527" PMx_abs="279517.093027" NOx_abs="5732626.726959" fuel_abs="5569086.300566" electricity_abs="0"
            CO_normed="31544.628413" CO2_normed="935595.485944" HC_normed="165.701398" PMx_normed="20.185788" NOx_normed="413.991098" fuel_normed="402.180756" electricity_normed="0"
            traveltime="469.84" CO_perVeh="42770.565365" CO2_perVeh="1268550.301583" HC_perVeh="224.670342" PMx_perVeh="27.369400" NOx_perVeh="561.320079" fuel_perVeh="545.306734" electricity_perVeh="0"/>
        </edge>
        <edge id="3">
            <lane id="3_0" sampledSeconds="477380.78" CO_abs="44247871.270692" CO2_abs="1352528658.066402" HC_abs="233434.019680" PMx_abs="29260.153123" NOx_abs="599097.290442" fuel_abs="581404.890398" electricity_abs="0"
            CO_normed="31858.467315" CO2_normed="973820.633808" HC_normed="168.072494" PMx_normed="21.067310" NOx_normed="431.350049" fuel_normed="418.611521" electricity_normed="0"
            traveltime="45.22" CO_perVeh="4191.416261" CO2_perVeh="128119.397565" HC_perVeh="22.112231" PMx_perVeh="2.771692" NOx_perVeh="56.749987" fuel_perVeh="55.074060" electricity_perVeh="0"/>
            <lane id="3_1" sampledSeconds="474932.75" CO_abs="43794199.619320" CO2_abs="1343413641.452191" HC_abs="231154.592006" PMx_abs="29047.999315" NOx_abs="594974.787711" fuel_abs="577486.551322" electricity_abs="0"
            CO_normed="31531.823726" CO2_normed="967257.821846" HC_normed="166.431306" PMx_normed="20.914560" NOx_normed="428.381847" fuel_normed="415.790317" electricity_normed="0"
            traveltime="45.12" CO_perVeh="4160.678749" CO2_perVeh="127631.344732" HC_perVeh="21.960899" PMx_perVeh="2.759712" NOx_perVeh="56.525727" fuel_perVeh="54.864252" electricity_perVeh="0"/>
        </edge>
        <edge id="4">
            <lane id="4_0" sampledSeconds="94465.78" CO_abs="7601702.460864" CO2_abs="509682303.009575" HC_abs="45693.615437" PMx_abs="9148.858184" NOx_abs="208535.181015" fuel_abs="219090.098962" electricity_abs="0"
            CO_normed="5473.225772" CO2_normed="366971.258167" HC_normed="32.899403" PMx_normed="6.587178" NOx_normed="150.145330" fuel_normed="157.744871" electricity_normed="0"
            traveltime="8.67" CO_perVeh="697.949823" CO2_perVeh="46796.447880" HC_perVeh="4.195356" PMx_perVeh="0.840002" NOx_perVeh="19.146644" fuel_perVeh="20.115743" electricity_perVeh="0"/>
            <lane id="4_1" sampledSeconds="89309.40" CO_abs="7388116.360919" CO2_abs="488539403.352664" HC_abs="44249.346905" PMx_abs="8830.853606" NOx_abs="200379.171800" fuel_abs="210001.671711" electricity_abs="0"
            CO_normed="5319.443780" CO2_normed="351748.370414" HC_normed="31.859530" PMx_normed="6.358215" NOx_normed="144.273004" fuel_normed="151.201204" electricity_normed="0"
            traveltime="8.72" CO_perVeh="721.547167" CO2_perVeh="47712.326849" HC_perVeh="4.321533" PMx_perVeh="0.862450" NOx_perVeh="19.569673" fuel_perVeh="20.509438" electricity_perVeh="0"/>
        </edge>
    </interval>
</meandata>
