<?xml version="1.0" encoding="UTF-8"?>

<!-- generated on Thu Apr 16 20:43:59 2020 by SUMO Version 0.32.0
<?xml version="1.0" encoding="UTF-8"?>

<configuration xmlns:xsi="http://www.w3.org/2001/XMLSchema-instance" xsi:noNamespaceSchemaLocation="http://sumo.dlr.de/xsd/sumoConfiguration.xsd">

    <input>
        <net-file value="base.net.xml"/>
        <route-files value="base.rou.xml"/>
        <additional-files value="additional.xml"/>
    </input>

    <time>
        <begin value="0"/>
        <end value="50000"/>
    </time>

    <random_number>
        <seed value="20918"/>
    </random_number>

</configuration>
-->

<meandata xmlns:xsi="http://www.w3.org/2001/XMLSchema-instance" xsi:noNamespaceSchemaLocation="http://sumo.dlr.de/xsd/meandata_file.xsd">
    <interval begin="0.00" end="50000.00" id="mid">
        <edge id="1">
            <lane id="1_0" sampledSeconds="987109.50" CO_abs="89776055.406394" CO2_abs="2577866490.100039" HC_abs="469507.957327" PMx_abs="55586.074248" NOx_abs="1139558.482052" fuel_abs="1108139.932918" electricity_abs="0"
            CO_normed="32319.379946" CO2_normed="928031.936436" HC_normed="169.022865" PMx_normed="20.010987" NOx_normed="410.241054" fuel_normed="398.930376" electricity_normed="0"
            traveltime="95.82" CO_perVeh="8715.005297" CO2_perVeh="250246.237866" HC_perVeh="45.577457" PMx_perVeh="5.396015" NOx_perVeh="110.622573" fuel_perVeh="107.572619" electricity_perVeh="0"/>
            <lane id="1_1" sampledSeconds="956042.80" CO_abs="87942806.243692" CO2_abs="2616730420.171967" HC_abs="462190.278488" PMx_abs="56575.445289" NOx_abs="1158504.393244" fuel_abs="1124843.216723" electricity_abs="0"
            CO_normed="31659.410248" CO2_normed="942022.951262" HC_normed="166.388500" PMx_normed="20.367160" NOx_normed="417.061582" fuel_normed="404.943558" electricity_normed="0"
            traveltime="93.59" CO_perVeh="8609.307046" CO2_perVeh="256169.169570" HC_perVeh="45.246885" PMx_perVeh="5.538547" NOx_perVeh="113.413711" fuel_perVeh="110.118395" electricity_perVeh="0"/>
        </edge>
        <edge id="2">
            <lane id="2_0" sampledSeconds="143817.97" CO_abs="2684433.120149" CO2_abs="183540618.653188" HC_abs="15781.074320" PMx_abs="2536.541464" NOx_abs="68960.934992" fuel_abs="78897.256976" electricity_abs="0"
            CO_normed="193.860767" CO2_normed="13254.688609" HC_normed="1.139656" PMx_normed="0.183181" NOx_normed="4.980128" fuel_normed="5.697696" electricity_normed="0"
            traveltime="85.12" CO_perVeh="1588.797939" CO2_perVeh="108629.622589" HC_perVeh="9.340124" PMx_perVeh="1.501267" NOx_perVeh="40.814945" fuel_perVeh="46.695818" electricity_perVeh="0"/>
            <lane id="2_1" sampledSeconds="5282393.50" CO_abs="478208153.219350" CO2_abs="12412161699.564659" HC_abs="2469346.997762" PMx_abs="272064.765415" NOx_abs="5511171.292127" fuel_abs="5335612.667717" electricity_abs="0"
            CO_normed="34534.590804" CO2_normed="896364.736578" HC_normed="178.327968" PMx_normed="19.647606" NOx_normed="397.998328" fuel_normed="385.320072" electricity_normed="0"
            traveltime="614.27" CO_perVeh="55608.931848" CO2_perVeh="1443361.116676" HC_perVeh="287.150581" PMx_perVeh="31.637334" NOx_perVeh="640.872279" fuel_perVeh="620.457262" electricity_perVeh="0"/>
            <lane id="2_2" sampledSeconds="4829461.50" CO_abs="438924520.554381" CO2_abs="12953475924.112717" HC_abs="2304044.425946" PMx_abs="279448.904884" NOx_abs="5731495.421504" fuel_abs="5568261.727811" electricity_abs="0"
            CO_normed="31697.658455" CO2_normed="935456.636445" HC_normed="166.390370" PMx_normed="20.180864" NOx_normed="413.909399" fuel_normed="402.121208" electricity_normed="0"
            traveltime="473.70" CO_perVeh="43052.285755" CO2_perVeh="1270552.728055" HC_perVeh="225.994162" PMx_perVeh="27.409984" NOx_perVeh="562.178614" fuel_perVeh="546.167698" electricity_perVeh="0"/>
        </edge>
        <edge id="3">
            <lane id="3_0" sampledSeconds="475596.37" CO_abs="43970163.087178" CO2_abs="1349302469.210965" HC_abs="232098.805462" PMx_abs="29192.675596" NOx_abs="597694.520201" fuel_abs="580017.912312" electricity_abs="0"
            CO_normed="31658.517423" CO2_normed="971497.777832" HC_normed="167.111140" PMx_normed="21.018726" NOx_normed="430.340055" fuel_normed="417.612897" electricity_normed="0"
            traveltime="45.12" CO_perVeh="4171.431977" CO2_perVeh="128007.791460" HC_perVeh="22.019122" PMx_perVeh="2.769498" NOx_perVeh="56.703043" fuel_perVeh="55.026070" electricity_perVeh="0"/>
            <lane id="3_1" sampledSeconds="473280.40" CO_abs="43665973.288958" CO2_abs="1342116019.250016" HC_abs="230544.568541" PMx_abs="29029.969969" NOx_abs="594468.361310" fuel_abs="576928.659700" electricity_abs="0"
            CO_normed="31439.500768" CO2_normed="966323.533860" HC_normed="165.992089" PMx_normed="20.901578" NOx_normed="428.017220" fuel_normed="415.388635" electricity_normed="0"
            traveltime="45.05" CO_perVeh="4156.273881" CO2_perVeh="127747.106876" HC_perVeh="21.944006" PMx_perVeh="2.763170" NOx_perVeh="56.583494" fuel_perVeh="54.914006" electricity_perVeh="0"/>
        </edge>
        <edge id="4">
            <lane id="4_0" sampledSeconds="93701.35" CO_abs="7570642.594415" CO2_abs="506654206.914731" HC_abs="45480.513729" PMx_abs="9102.305773" NOx_abs="207356.098084" fuel_abs="217788.450956" electricity_abs="0"
            CO_normed="5450.862668" CO2_normed="364791.028979" HC_normed="32.745970" PMx_normed="6.553660" NOx_normed="149.296391" fuel_normed="156.807685" electricity_normed="0"
            traveltime="8.68" CO_perVeh="701.117537" CO2_perVeh="46921.267927" HC_perVeh="4.211952" PMx_perVeh="0.842965" NOx_perVeh="19.203257" fuel_perVeh="20.169398" electricity_perVeh="0"/>
            <lane id="4_1" sampledSeconds="89558.89" CO_abs="7395204.154805" CO2_abs="489593654.342954" HC_abs="44297.729337" PMx_abs="8844.844498" NOx_abs="200766.083734" fuel_abs="210454.848300" electricity_abs="0"
            CO_normed="5324.546991" CO2_normed="352507.431127" HC_normed="31.894365" PMx_normed="6.368288" NOx_normed="144.551580" fuel_normed="151.527491" electricity_normed="0"
            traveltime="8.72" CO_perVeh="719.635576" CO2_perVeh="47642.905353" HC_perVeh="4.310662" PMx_perVeh="0.860702" NOx_perVeh="19.536772" fuel_perVeh="20.479596" electricity_perVeh="0"/>
        </edge>
    </interval>
</meandata>
