<?xml version="1.0" encoding="UTF-8"?>

<!-- generated on Thu Apr 16 18:20:27 2020 by SUMO Version 0.32.0
<?xml version="1.0" encoding="UTF-8"?>

<configuration xmlns:xsi="http://www.w3.org/2001/XMLSchema-instance" xsi:noNamespaceSchemaLocation="http://sumo.dlr.de/xsd/sumoConfiguration.xsd">

    <input>
        <net-file value="base.net.xml"/>
        <route-files value="base.rou.xml"/>
        <additional-files value="additional.xml"/>
    </input>

    <time>
        <begin value="0"/>
        <end value="50000"/>
    </time>

    <random_number>
        <seed value="30310"/>
    </random_number>

</configuration>
-->

<meandata xmlns:xsi="http://www.w3.org/2001/XMLSchema-instance" xsi:noNamespaceSchemaLocation="http://sumo.dlr.de/xsd/meandata_file.xsd">
    <interval begin="0.00" end="50000.00" id="mid">
        <edge id="1">
            <lane id="1_0" sampledSeconds="982010.64" CO_abs="89243477.905910" CO2_abs="2525618152.833752" HC_abs="465826.550881" PMx_abs="54472.824840" NOx_abs="1115772.376193" fuel_abs="1085681.254465" electricity_abs="0"
            CO_normed="32127.652046" CO2_normed="909222.535020" HC_normed="167.697558" PMx_normed="19.610217" NOx_normed="401.678055" fuel_normed="390.845252" electricity_normed="0"
            traveltime="95.35" CO_perVeh="8665.065300" CO2_perVeh="245224.040247" HC_perVeh="45.229271" PMx_perVeh="5.289021" NOx_perVeh="108.335541" fuel_perVeh="105.413854" electricity_perVeh="0"/>
            <lane id="1_1" sampledSeconds="961588.22" CO_abs="88255707.123674" CO2_abs="2612154709.031290" HC_abs="463483.024189" PMx_abs="56418.380913" NOx_abs="1156002.322578" fuel_abs="1122876.773090" electricity_abs="0"
            CO_normed="31772.054565" CO2_normed="940375.695251" HC_normed="166.853889" PMx_normed="20.310617" NOx_normed="416.160836" fuel_normed="404.235638" electricity_normed="0"
            traveltime="93.55" CO_perVeh="8586.311574" CO2_perVeh="254133.981145" HC_perVeh="45.091811" PMx_perVeh="5.488889" NOx_perVeh="112.466337" fuel_perVeh="109.243585" electricity_perVeh="0"/>
        </edge>
        <edge id="2">
            <lane id="2_0" sampledSeconds="490203.33" CO_abs="21355011.925967" CO2_abs="818575158.674395" HC_abs="114620.959674" PMx_abs="13654.397684" NOx_abs="326734.811843" fuel_abs="351879.184383" electricity_abs="0"
            CO_normed="1542.187421" CO2_normed="59114.755692" HC_normed="8.277542" PMx_normed="0.986075" NOx_normed="23.595694" fuel_normed="25.411536" electricity_normed="0"
            traveltime="122.50" CO_perVeh="5336.741542" CO2_perVeh="204566.687668" HC_perVeh="28.644444" PMx_perVeh="3.412313" NOx_perVeh="81.652928" fuel_perVeh="87.936652" electricity_perVeh="0"/>
            <lane id="2_1" sampledSeconds="5687444.59" CO_abs="529506276.233890" CO2_abs="11879816137.025349" HC_abs="2690017.509425" PMx_abs="268684.481851" NOx_abs="5314203.039055" fuel_abs="5106823.675100" electricity_abs="0"
            CO_normed="38239.169397" CO2_normed="857920.523436" HC_normed="194.264053" PMx_normed="19.403493" NOx_normed="383.773941" fuel_normed="368.797698" electricity_normed="0"
            traveltime="898.52" CO_perVeh="83652.948857" CO2_perVeh="1876808.068841" HC_perVeh="424.976827" PMx_perVeh="42.447560" NOx_perVeh="839.553325" fuel_perVeh="806.790927" electricity_perVeh="0"/>
            <lane id="2_2" sampledSeconds="4839197.15" CO_abs="439189844.084385" CO2_abs="12929413821.605724" HC_abs="2304606.643394" PMx_abs="278787.413651" NOx_abs="5719774.329074" fuel_abs="5557919.397258" electricity_abs="0"
            CO_normed="31716.819232" CO2_normed="933718.952012" HC_normed="166.430971" PMx_normed="20.133093" NOx_normed="413.062941" fuel_normed="401.374320" electricity_normed="0"
            traveltime="474.01" CO_perVeh="43019.278517" CO2_perVeh="1266454.727382" HC_perVeh="225.739544" PMx_perVeh="27.307629" NOx_perVeh="560.260143" fuel_perVeh="544.406219" electricity_perVeh="0"/>
        </edge>
        <edge id="3">
            <lane id="3_0" sampledSeconds="477958.88" CO_abs="44311388.336637" CO2_abs="1353018751.646874" HC_abs="233734.277718" PMx_abs="29275.218742" NOx_abs="599340.100821" fuel_abs="581615.598669" electricity_abs="0"
            CO_normed="31904.199602" CO2_normed="974173.501186" HC_normed="168.288680" PMx_normed="21.078157" NOx_normed="431.524873" fuel_normed="418.763231" electricity_normed="0"
            traveltime="45.31" CO_perVeh="4201.113974" CO2_perVeh="128278.219171" HC_perVeh="22.160090" PMx_perVeh="2.775551" NOx_perVeh="56.822776" fuel_perVeh="55.142335" electricity_perVeh="0"/>
            <lane id="3_1" sampledSeconds="474445.85" CO_abs="43757464.426148" CO2_abs="1342646613.210753" HC_abs="230969.373625" PMx_abs="29030.492449" NOx_abs="594629.344588" fuel_abs="577156.824048" electricity_abs="0"
            CO_normed="31505.374387" CO2_normed="966705.561512" HC_normed="166.297949" PMx_normed="20.901955" NOx_normed="428.133128" fuel_normed="415.552913" electricity_normed="0"
            traveltime="45.08" CO_perVeh="4157.882238" CO2_perVeh="127579.753031" HC_perVeh="21.946963" PMx_perVeh="2.758509" NOx_perVeh="56.502332" fuel_perVeh="54.842074" electricity_perVeh="0"/>
        </edge>
        <edge id="4">
            <lane id="4_0" sampledSeconds="95036.54" CO_abs="7642392.053776" CO2_abs="512619705.957423" HC_abs="45949.634247" PMx_abs="9200.027121" NOx_abs="209728.871172" fuel_abs="220352.760693" electricity_abs="0"
            CO_normed="5502.522279" CO2_normed="369086.188289" HC_normed="33.083737" PMx_normed="6.624020" NOx_normed="151.004787" fuel_normed="158.653988" electricity_normed="0"
            traveltime="8.67" CO_perVeh="697.466338" CO2_perVeh="46783.125825" HC_perVeh="4.193494" PMx_perVeh="0.839621" NOx_perVeh="19.140451" fuel_perVeh="20.110017" electricity_perVeh="0"/>
            <lane id="4_1" sampledSeconds="88635.49" CO_abs="7343741.541697" CO2_abs="485076658.441857" HC_abs="43971.677014" PMx_abs="8771.632335" NOx_abs="198987.897714" fuel_abs="208513.190281" electricity_abs="0"
            CO_normed="5287.493910" CO2_normed="349255.194078" HC_normed="31.659607" PMx_normed="6.315575" NOx_normed="143.271286" fuel_normed="150.129497" electricity_normed="0"
            traveltime="8.73" CO_perVeh="723.135323" CO2_perVeh="47765.306558" HC_perVeh="4.329874" PMx_perVeh="0.863739" NOx_perVeh="19.594260" fuel_perVeh="20.532211" electricity_perVeh="0"/>
        </edge>
    </interval>
</meandata>
