<?xml version="1.0" encoding="UTF-8"?>

<!-- generated on Thu Apr 16 18:08:19 2020 by SUMO Version 0.32.0
<?xml version="1.0" encoding="UTF-8"?>

<configuration xmlns:xsi="http://www.w3.org/2001/XMLSchema-instance" xsi:noNamespaceSchemaLocation="http://sumo.dlr.de/xsd/sumoConfiguration.xsd">

    <input>
        <net-file value="base.net.xml"/>
        <route-files value="base.rou.xml"/>
        <additional-files value="additional.xml"/>
    </input>

    <time>
        <begin value="0"/>
        <end value="50000"/>
    </time>

    <random_number>
        <seed value="28119"/>
    </random_number>

</configuration>
-->

<meandata xmlns:xsi="http://www.w3.org/2001/XMLSchema-instance" xsi:noNamespaceSchemaLocation="http://sumo.dlr.de/xsd/meandata_file.xsd">
    <interval begin="0.00" end="50000.00" id="mid">
        <edge id="1">
            <lane id="1_0" sampledSeconds="987249.48" CO_abs="89709411.818137" CO2_abs="2581396793.380076" HC_abs="469294.312273" PMx_abs="55673.348497" NOx_abs="1141275.685653" fuel_abs="1109657.305991" electricity_abs="0"
            CO_normed="32295.388255" CO2_normed="929302.845617" HC_normed="168.945952" PMx_normed="20.042405" NOx_normed="410.859247" fuel_normed="399.476630" electricity_normed="0"
            traveltime="96.00" CO_perVeh="8723.780886" CO2_perVeh="251027.618491" HC_perVeh="45.636469" PMx_perVeh="5.413948" NOx_perVeh="110.983216" fuel_perVeh="107.908490" electricity_perVeh="0"/>
            <lane id="1_1" sampledSeconds="950770.92" CO_abs="87587732.627490" CO2_abs="2617252690.140868" HC_abs="460598.536036" PMx_abs="56597.027459" NOx_abs="1158843.685769" fuel_abs="1125067.383875" electricity_abs="0"
            CO_normed="31531.583746" CO2_normed="942210.968451" HC_normed="165.815473" PMx_normed="20.374930" NOx_normed="417.183727" fuel_normed="405.024258" electricity_normed="0"
            traveltime="93.05" CO_perVeh="8572.038064" CO2_perVeh="256145.341470" HC_perVeh="45.077867" PMx_perVeh="5.539039" NOx_perVeh="113.413738" fuel_perVeh="110.108118" electricity_perVeh="0"/>
        </edge>
        <edge id="2">
            <lane id="2_0" sampledSeconds="138459.37" CO_abs="2552329.950355" CO2_abs="169715353.923741" HC_abs="14917.507586" PMx_abs="2400.118805" NOx_abs="64192.382433" fuel_abs="72954.260666" electricity_abs="0"
            CO_normed="184.320719" CO2_normed="12256.274305" HC_normed="1.077292" PMx_normed="0.173329" NOx_normed="4.635759" fuel_normed="5.268512" electricity_normed="0"
            traveltime="84.79" CO_perVeh="1563.087470" CO2_perVeh="103936.382943" HC_perVeh="9.135719" PMx_perVeh="1.469871" NOx_perVeh="39.312436" fuel_perVeh="44.678350" electricity_perVeh="0"/>
            <lane id="2_1" sampledSeconds="5282449.91" CO_abs="478041813.255370" CO2_abs="12427157375.001963" HC_abs="2468929.645316" PMx_abs="272236.160925" NOx_abs="5517033.718867" fuel_abs="5342058.435117" electricity_abs="0"
            CO_normed="34522.578289" CO2_normed="897447.674022" HC_normed="178.297828" PMx_normed="19.659984" NOx_normed="398.421693" fuel_normed="385.785564" electricity_normed="0"
            traveltime="611.42" CO_perVeh="55331.149962" CO2_perVeh="1438386.537013" HC_perVeh="285.767296" PMx_perVeh="31.510089" NOx_perVeh="638.571379" fuel_perVeh="618.318792" electricity_perVeh="0"/>
            <lane id="2_2" sampledSeconds="4790830.25" CO_abs="436358194.783272" CO2_abs="12956659069.045586" HC_abs="2292530.976224" PMx_abs="279621.128930" NOx_abs="5733747.614921" fuel_abs="5569627.589244" electricity_abs="0"
            CO_normed="31512.327005" CO2_normed="935686.512509" HC_normed="165.558907" PMx_normed="20.193301" NOx_normed="414.072044" fuel_normed="402.219846" electricity_normed="0"
            traveltime="469.76" CO_perVeh="42786.878291" CO2_perVeh="1270458.539053" HC_perVeh="224.792945" PMx_perVeh="27.418106" NOx_perVeh="562.219672" fuel_perVeh="546.126968" electricity_perVeh="0"/>
        </edge>
        <edge id="3">
            <lane id="3_0" sampledSeconds="475558.17" CO_abs="43968610.499473" CO2_abs="1349397966.283872" HC_abs="232094.560688" PMx_abs="29196.995041" NOx_abs="597751.977222" fuel_abs="580058.955665" electricity_abs="0"
            CO_normed="31657.399560" CO2_normed="971566.535724" HC_normed="167.108084" PMx_normed="21.021836" NOx_normed="430.381424" fuel_normed="417.642448" electricity_normed="0"
            traveltime="45.13" CO_perVeh="4172.852975" CO2_perVeh="128064.982131" HC_perVeh="22.026998" PMx_perVeh="2.770949" NOx_perVeh="56.729814" fuel_perVeh="55.050653" electricity_perVeh="0"/>
            <lane id="3_1" sampledSeconds="473811.52" CO_abs="43725522.548631" CO2_abs="1344197768.644518" HC_abs="230866.306031" PMx_abs="29080.959389" NOx_abs="595429.377942" fuel_abs="577823.514684" electricity_abs="0"
            CO_normed="31482.376235" CO2_normed="967822.393424" HC_normed="166.223740" PMx_normed="20.938291" NOx_normed="428.709152" fuel_normed="416.032931" electricity_normed="0"
            traveltime="45.08" CO_perVeh="4160.487854" CO2_perVeh="127900.552458" HC_perVeh="21.966952" PMx_perVeh="2.767056" NOx_perVeh="56.655165" fuel_perVeh="54.979965" electricity_perVeh="0"/>
        </edge>
        <edge id="4">
            <lane id="4_0" sampledSeconds="94078.33" CO_abs="7575205.148756" CO2_abs="507497235.118706" HC_abs="45523.443944" PMx_abs="9110.866535" NOx_abs="207651.184317" fuel_abs="218150.836709" electricity_abs="0"
            CO_normed="5454.147707" CO2_normed="365398.009285" HC_normed="32.776880" PMx_normed="6.559824" NOx_normed="149.508853" fuel_normed="157.068602" electricity_normed="0"
            traveltime="8.67" CO_perVeh="698.454395" CO2_perVeh="46792.617160" HC_perVeh="4.197385" PMx_perVeh="0.840047" NOx_perVeh="19.146001" fuel_perVeh="20.114097" electricity_perVeh="0"/>
            <lane id="4_1" sampledSeconds="89099.45" CO_abs="7387246.174688" CO2_abs="488258847.274029" HC_abs="44236.377714" PMx_abs="8831.752281" NOx_abs="200306.754246" fuel_abs="209881.065554" electricity_abs="0"
            CO_normed="5318.817246" CO2_normed="351546.370037" HC_normed="31.850192" PMx_normed="6.358862" NOx_normed="144.220863" fuel_normed="151.114367" electricity_normed="0"
            traveltime="8.72" CO_perVeh="722.975801" CO2_perVeh="47784.969243" HC_perVeh="4.329331" PMx_perVeh="0.864347" NOx_perVeh="19.603643" fuel_perVeh="20.540663" electricity_perVeh="0"/>
        </edge>
    </interval>
</meandata>
