<?xml version="1.0" encoding="UTF-8"?>

<!-- generated on Tue May 21 17:02:25 2019 by SUMO Version 0.32.0
<?xml version="1.0" encoding="UTF-8"?>

<configuration xmlns:xsi="http://www.w3.org/2001/XMLSchema-instance" xsi:noNamespaceSchemaLocation="http://sumo.dlr.de/xsd/sumoConfiguration.xsd">

    <input>
        <net-file value="base.net.xml"/>
        <route-files value="base.rou.xml"/>
        <additional-files value="additional_5000.xml"/>
    </input>

    <time>
        <begin value="0"/>
        <end value="5000"/>
    </time>

</configuration>
-->

<meandata xmlns:xsi="http://www.w3.org/2001/XMLSchema-instance" xsi:noNamespaceSchemaLocation="http://sumo.dlr.de/xsd/meandata_file.xsd">
    <interval begin="0.00" end="5000.00" id="myEdges">
        <edge id="1" sampledSeconds="176044.79" traveltime="189.19" overlapTraveltime="193.86" density="176.04" occupancy="43.41" waitingTime="6511.00" speed="1.06" departed="955" arrived="0" entered="0" left="908" laneChangedFrom="44" laneChangedTo="44"/>
        <edge id="2" sampledSeconds="216832.03" traveltime="238.85" overlapTraveltime="245.20" density="200.00" occupancy="53.23" waitingTime="3238.00" speed="0.84" departed="0" arrived="0" entered="908" left="861" laneChangedFrom="59" laneChangedTo="59"/>
        <edge id="3" sampledSeconds="40010.41" traveltime="46.34" overlapTraveltime="47.13" density="40.01" occupancy="9.19" waitingTime="0.00" speed="4.35" departed="0" arrived="854" entered="860" left="0" laneChangedFrom="144" laneChangedTo="144"/>
    </interval>
</meandata>
