<?xml version="1.0" encoding="UTF-8"?>

<!-- generated on Fri Apr 10 18:27:08 2020 by SUMO Version 0.32.0
<?xml version="1.0" encoding="UTF-8"?>

<configuration xmlns:xsi="http://www.w3.org/2001/XMLSchema-instance" xsi:noNamespaceSchemaLocation="http://sumo.dlr.de/xsd/sumoConfiguration.xsd">

    <input>
        <net-file value="base.net.xml"/>
        <route-files value="base.rou.xml"/>
        <additional-files value="additional.xml"/>
    </input>

    <time>
        <begin value="0"/>
        <end value="50000"/>
    </time>

    <random_number>
        <seed value="55397"/>
    </random_number>

</configuration>
-->

<meandata xmlns:xsi="http://www.w3.org/2001/XMLSchema-instance" xsi:noNamespaceSchemaLocation="http://sumo.dlr.de/xsd/meandata_file.xsd">
    <interval begin="0.00" end="50000.00" id="mid">
        <edge id="1">
            <lane id="1_0" sampledSeconds="1054958.78" CO_abs="77545297.517395" CO2_abs="1610735234.022173" HC_abs="390557.601689" PMx_abs="35384.683079" NOx_abs="712874.362724" fuel_abs="692419.756007" electricity_abs="0"
            CO_normed="27916.307106" CO2_normed="579864.684248" HC_normed="140.600737" PMx_normed="12.738486" NOx_normed="256.634771" fuel_normed="249.271112" electricity_normed="0"
            traveltime="131.66" CO_perVeh="9677.704650" CO2_perVeh="201020.827345" HC_perVeh="48.741848" PMx_perVeh="4.416032" NOx_perVeh="88.967194" fuel_perVeh="86.414446" electricity_perVeh="0"/>
            <lane id="1_1" sampledSeconds="1045453.92" CO_abs="75382688.751541" CO2_abs="1550734635.306059" HC_abs="379205.530135" PMx_abs="33682.677406" NOx_abs="684711.427485" fuel_abs="666627.931226" electricity_abs="0"
            CO_normed="27137.767951" CO2_normed="558264.468710" HC_normed="136.513991" PMx_normed="12.125764" NOx_normed="246.496114" fuel_normed="239.986055" electricity_normed="0"
            traveltime="128.92" CO_perVeh="9295.635660" CO2_perVeh="191225.126264" HC_perVeh="46.760821" PMx_perVeh="4.153499" NOx_perVeh="84.433549" fuel_perVeh="82.203626" electricity_perVeh="0"/>
        </edge>
        <edge id="2">
            <lane id="2_0" sampledSeconds="3103854.27" CO_abs="230755973.323908" CO2_abs="4306464929.193797" HC_abs="1150936.856735" PMx_abs="97876.557664" NOx_abs="1916073.959262" fuel_abs="1851271.030009" electricity_abs="0"
            CO_normed="16664.423349" CO2_normed="310998.470313" HC_normed="83.116804" PMx_normed="7.068317" NOx_normed="138.372442" fuel_normed="133.692592" electricity_normed="0"
            traveltime="791.28" CO_perVeh="58827.756768" CO2_perVeh="1097868.314018" HC_perVeh="293.414001" PMx_perVeh="24.952153" NOx_perVeh="488.474171" fuel_perVeh="471.953641" electricity_perVeh="0"/>
            <lane id="2_1" sampledSeconds="5891512.89" CO_abs="454904948.371324" CO2_abs="7916018735.493758" HC_abs="2255560.597957" PMx_abs="184888.581464" NOx_abs="3560484.686360" fuel_abs="3402970.687948" electricity_abs="0"
            CO_normed="32851.711417" CO2_normed="571668.354018" HC_normed="162.889030" PMx_normed="13.352034" NOx_normed="257.126276" fuel_normed="245.751143" electricity_normed="0"
            traveltime="1422.57" CO_perVeh="109842.078454" CO2_perVeh="1911414.580342" HC_perVeh="544.631280" PMx_perVeh="44.643493" NOx_perVeh="859.720343" fuel_perVeh="821.686760" electricity_perVeh="0"/>
            <lane id="2_2" sampledSeconds="5235069.32" CO_abs="371091995.982828" CO2_abs="7604588324.290055" HC_abs="1865991.821516" PMx_abs="165078.712442" NOx_abs="3357917.393579" fuel_abs="3269052.523432" electricity_abs="0"
            CO_normed="26799.020773" CO2_normed="549177.893028" HC_normed="134.755678" PMx_normed="11.921432" NOx_normed="242.497545" fuel_normed="236.080022" electricity_normed="0"
            traveltime="653.72" CO_perVeh="46339.315208" CO2_perVeh="949606.618312" HC_perVeh="233.011717" PMx_perVeh="20.613849" NOx_perVeh="419.312716" fuel_perVeh="408.215906" electricity_perVeh="0"/>
        </edge>
        <edge id="3">
            <lane id="3_0" sampledSeconds="548957.26" CO_abs="38298175.147628" CO2_abs="826642988.223733" HC_abs="193608.178969" PMx_abs="17957.867311" NOx_abs="365364.807229" fuel_abs="355354.634604" electricity_abs="0"
            CO_normed="27574.686106" CO2_normed="595182.951521" HC_normed="139.397889" PMx_normed="12.929664" NOx_normed="263.062661" fuel_normed="255.855337" electricity_normed="0"
            traveltime="66.07" CO_perVeh="4609.174134" CO2_perVeh="99486.240908" HC_perVeh="23.300687" PMx_perVeh="2.161224" NOx_perVeh="43.971547" fuel_perVeh="42.766826" electricity_perVeh="0"/>
            <lane id="3_1" sampledSeconds="548448.31" CO_abs="38253061.467005" CO2_abs="826947667.652482" HC_abs="193410.455385" PMx_abs="17959.111433" NOx_abs="365475.665777" fuel_abs="355485.565613" electricity_abs="0"
            CO_normed="27542.204256" CO2_normed="595402.320710" HC_normed="139.255528" PMx_normed="12.930560" NOx_normed="263.142479" fuel_normed="255.949607" electricity_normed="0"
            traveltime="65.85" CO_perVeh="4592.742416" CO2_perVeh="99285.063286" HC_perVeh="23.221263" PMx_perVeh="2.156208" NOx_perVeh="43.879771" fuel_perVeh="42.680339" electricity_perVeh="0"/>
        </edge>
        <edge id="4">
            <lane id="4_0" sampledSeconds="97175.72" CO_abs="8119774.908256" CO2_abs="438683190.950097" HC_abs="47349.705316" PMx_abs="8407.921129" NOx_abs="184576.941500" fuel_abs="188571.206642" electricity_abs="0"
            CO_normed="5846.237934" CO2_normed="315851.897484" HC_normed="34.091788" PMx_normed="6.053703" NOx_normed="132.895398" fuel_normed="135.771269" electricity_normed="0"
            traveltime="9.97" CO_perVeh="833.251561" CO2_perVeh="45017.683118" HC_perVeh="4.859028" PMx_perVeh="0.862821" NOx_perVeh="18.941292" fuel_perVeh="19.351183" electricity_perVeh="0"/>
            <lane id="4_1" sampledSeconds="72326.90" CO_abs="6592028.263892" CO2_abs="331405374.616884" HC_abs="37855.453461" PMx_abs="6439.682026" NOx_abs="140271.679413" fuel_abs="142457.275871" electricity_abs="0"
            CO_normed="4746.260350" CO2_normed="238611.869724" HC_normed="27.255926" PMx_normed="4.636571" NOx_normed="100.995609" fuel_normed="102.569239" electricity_normed="0"
            traveltime="10.69" CO_perVeh="974.603534" CO2_perVeh="48996.884795" HC_perVeh="5.596769" PMx_perVeh="0.952080" NOx_perVeh="20.738575" fuel_perVeh="21.061707" electricity_perVeh="0"/>
        </edge>
    </interval>
</meandata>
