<?xml version="1.0" encoding="UTF-8"?>

<!-- generated on Fri Apr 10 18:09:16 2020 by SUMO Version 0.32.0
<?xml version="1.0" encoding="UTF-8"?>

<configuration xmlns:xsi="http://www.w3.org/2001/XMLSchema-instance" xsi:noNamespaceSchemaLocation="http://sumo.dlr.de/xsd/sumoConfiguration.xsd">

    <input>
        <net-file value="base.net.xml"/>
        <route-files value="base.rou.xml"/>
        <additional-files value="additional.xml"/>
    </input>

    <time>
        <begin value="0"/>
        <end value="50000"/>
    </time>

    <random_number>
        <seed value="57374"/>
    </random_number>

</configuration>
-->

<meandata xmlns:xsi="http://www.w3.org/2001/XMLSchema-instance" xsi:noNamespaceSchemaLocation="http://sumo.dlr.de/xsd/meandata_file.xsd">
    <interval begin="0.00" end="50000.00" id="mid">
        <edge id="1">
            <lane id="1_0" sampledSeconds="1053939.10" CO_abs="76989364.973206" CO2_abs="1578876125.262146" HC_abs="387207.276769" PMx_abs="34475.202469" NOx_abs="697971.426436" fuel_abs="678725.323412" electricity_abs="0"
            CO_normed="27716.171390" CO2_normed="568395.405094" HC_normed="139.394620" PMx_normed="12.411073" NOx_normed="251.269714" fuel_normed="244.341116" electricity_normed="0"
            traveltime="131.26" CO_perVeh="9588.619475" CO2_perVeh="196640.696647" HC_perVeh="48.224625" PMx_perVeh="4.293705" NOx_perVeh="86.928661" fuel_perVeh="84.531660" electricity_perVeh="0"/>
            <lane id="1_1" sampledSeconds="1049810.38" CO_abs="75796981.763327" CO2_abs="1554608969.636931" HC_abs="381179.414711" PMx_abs="33790.505517" NOx_abs="686604.714934" fuel_abs="668293.579544" electricity_abs="0"
            CO_normed="27286.913435" CO2_normed="559659.229069" HC_normed="137.224589" PMx_normed="12.164582" NOx_normed="247.177697" fuel_normed="240.585689" electricity_normed="0"
            traveltime="130.30" CO_perVeh="9407.696412" CO2_perVeh="192953.451256" HC_perVeh="47.310858" PMx_perVeh="4.193977" NOx_perVeh="85.219339" fuel_perVeh="82.946616" electricity_perVeh="0"/>
        </edge>
        <edge id="2">
            <lane id="2_0" sampledSeconds="128476.05" CO_abs="4099187.438510" CO2_abs="257358777.463532" HC_abs="24624.653789" PMx_abs="4113.111890" NOx_abs="101032.667034" fuel_abs="110628.453214" electricity_abs="0"
            CO_normed="296.029584" CO2_normed="18585.588744" HC_normed="1.778310" PMx_normed="0.297035" NOx_normed="7.296241" fuel_normed="7.989216" electricity_normed="0"
            traveltime="97.74" CO_perVeh="3118.361848" CO2_perVeh="195779.725866" HC_perVeh="18.732635" PMx_perVeh="3.128955" NOx_perVeh="76.858260" fuel_perVeh="84.158032" electricity_perVeh="0"/>
            <lane id="2_1" sampledSeconds="5465262.36" CO_abs="399259796.849211" CO2_abs="7685999121.017814" HC_abs="1996300.243158" PMx_abs="171021.407207" NOx_abs="3414608.643421" fuel_abs="3304064.285746" electricity_abs="0"
            CO_normed="28833.204988" CO2_normed="555057.108037" HC_normed="144.166116" PMx_normed="12.350593" NOx_normed="246.591597" fuel_normed="238.608454" electricity_normed="0"
            traveltime="813.62" CO_perVeh="59438.383607" CO2_perVeh="1144225.809268" HC_perVeh="297.192105" PMx_perVeh="25.460204" NOx_perVeh="508.337729" fuel_perVeh="491.880831" electricity_perVeh="0"/>
            <lane id="2_2" sampledSeconds="5248028.82" CO_abs="371992482.766473" CO2_abs="7620880148.637649" HC_abs="1870470.933638" PMx_abs="165454.949022" NOx_abs="3365265.753096" fuel_abs="3276056.090845" electricity_abs="0"
            CO_normed="26864.050912" CO2_normed="550354.434004" HC_normed="135.079145" PMx_normed="11.948602" NOx_normed="243.028219" fuel_normed="236.585796" electricity_normed="0"
            traveltime="654.75" CO_perVeh="46410.209425" CO2_perVeh="950789.760777" HC_perVeh="233.362102" PMx_perVeh="20.642349" NOx_perVeh="419.854421" fuel_perVeh="408.724521" electricity_perVeh="0"/>
        </edge>
        <edge id="3">
            <lane id="3_0" sampledSeconds="548705.04" CO_abs="38225457.946294" CO2_abs="825392314.275279" HC_abs="193247.641284" PMx_abs="17926.899130" NOx_abs="364791.707021" fuel_abs="354816.991624" electricity_abs="0"
            CO_normed="27522.329721" CO2_normed="594282.466278" HC_normed="139.138302" PMx_normed="12.907367" NOx_normed="262.650029" fuel_normed="255.468234" electricity_normed="0"
            traveltime="65.97" CO_perVeh="4595.736585" CO2_perVeh="99234.537909" HC_perVeh="23.233607" PMx_perVeh="2.155299" NOx_perVeh="43.857855" fuel_perVeh="42.658624" electricity_perVeh="0"/>
            <lane id="3_1" sampledSeconds="548396.79" CO_abs="38193873.234284" CO2_abs="825567421.069499" HC_abs="193108.664088" PMx_abs="17929.099157" NOx_abs="364866.158925" fuel_abs="354892.233675" electricity_abs="0"
            CO_normed="27499.588729" CO2_normed="594408.543170" HC_normed="139.038238" PMx_normed="12.908951" NOx_normed="262.703634" fuel_normed="255.522408" electricity_normed="0"
            traveltime="65.87" CO_perVeh="4587.751935" CO2_perVeh="99165.081004" HC_perVeh="23.195727" PMx_perVeh="2.153598" NOx_perVeh="43.826805" fuel_perVeh="42.628762" electricity_perVeh="0"/>
        </edge>
        <edge id="4">
            <lane id="4_0" sampledSeconds="91529.08" CO_abs="7767595.976650" CO2_abs="414514314.542233" HC_abs="45174.442814" PMx_abs="7962.980156" NOx_abs="174579.176597" fuel_abs="178182.084780" electricity_abs="0"
            CO_normed="5592.669103" CO2_normed="298450.306470" HC_normed="32.525599" PMx_normed="5.733346" NOx_normed="125.697007" fuel_normed="128.291101" electricity_normed="0"
            traveltime="10.08" CO_perVeh="855.409279" CO2_perVeh="45648.536835" HC_perVeh="4.974852" PMx_perVeh="0.876926" NOx_perVeh="19.225594" fuel_perVeh="19.622366" electricity_perVeh="0"/>
            <lane id="4_1" sampledSeconds="77857.37" CO_abs="6928168.786006" CO2_abs="355577876.228229" HC_abs="39957.412516" PMx_abs="6878.755790" NOx_abs="150220.738391" fuel_abs="152847.952602" electricity_abs="0"
            CO_normed="4988.281526" CO2_normed="256016.070884" HC_normed="28.769337" PMx_normed="4.952704" NOx_normed="108.158932" fuel_normed="110.050526" electricity_normed="0"
            traveltime="10.47" CO_perVeh="931.681347" CO2_perVeh="47817.148363" HC_perVeh="5.373364" PMx_perVeh="0.925036" NOx_perVeh="20.201277" fuel_perVeh="20.554578" electricity_perVeh="0"/>
        </edge>
    </interval>
</meandata>
