<?xml version="1.0" encoding="UTF-8"?>

<!-- generated on Thu Apr 16 21:09:23 2020 by SUMO Version 0.32.0
<?xml version="1.0" encoding="UTF-8"?>

<configuration xmlns:xsi="http://www.w3.org/2001/XMLSchema-instance" xsi:noNamespaceSchemaLocation="http://sumo.dlr.de/xsd/sumoConfiguration.xsd">

    <input>
        <net-file value="base.net.xml"/>
        <route-files value="base.rou.xml"/>
        <additional-files value="additional.xml"/>
    </input>

    <time>
        <begin value="0"/>
        <end value="50000"/>
    </time>

    <random_number>
        <seed value="32331"/>
    </random_number>

</configuration>
-->

<meandata xmlns:xsi="http://www.w3.org/2001/XMLSchema-instance" xsi:noNamespaceSchemaLocation="http://sumo.dlr.de/xsd/meandata_file.xsd">
    <interval begin="0.00" end="50000.00" id="mid">
        <edge id="1">
            <lane id="1_0" sampledSeconds="934661.53" CO_abs="86430886.544317" CO2_abs="2616810176.767149" HC_abs="455360.186676" PMx_abs="56618.915261" NOx_abs="1158941.242321" fuel_abs="1124876.127849" electricity_abs="0"
            CO_normed="31115.119156" CO2_normed="942051.663636" HC_normed="163.929667" PMx_normed="20.382809" NOx_normed="417.218847" fuel_normed="404.955406" electricity_normed="0"
            traveltime="91.48" CO_perVeh="8459.189660" CO2_perVeh="256113.230754" HC_perVeh="44.567149" PMx_perVeh="5.541423" NOx_perVeh="113.428245" fuel_perVeh="110.094214" electricity_perVeh="0"/>
            <lane id="1_1" sampledSeconds="936095.61" CO_abs="86506261.802865" CO2_abs="2616188294.203095" HC_abs="455685.677623" PMx_abs="56607.041364" NOx_abs="1158679.871996" fuel_abs="1124608.881248" electricity_abs="0"
            CO_normed="31142.254249" CO2_normed="941827.785913" HC_normed="164.046844" PMx_normed="20.378535" NOx_normed="417.124754" fuel_normed="404.859197" electricity_normed="0"
            traveltime="91.68" CO_perVeh="8471.857914" CO2_perVeh="256212.383268" HC_perVeh="44.626877" PMx_perVeh="5.543724" NOx_perVeh="113.473534" fuel_perVeh="110.136844" electricity_perVeh="0"/>
        </edge>
        <edge id="2">
            <lane id="2_0" sampledSeconds="5.34" CO_abs="362.923072" CO2_abs="10463.958510" HC_abs="1.900274" PMx_abs="0.232214" NOx_abs="4.671881" fuel_abs="4.498100" electricity_abs="0"
            CO_normed="0.026209" CO2_normed="0.755672" HC_normed="0.000137" PMx_normed="0.000017" NOx_normed="0.000337" fuel_normed="0.000325" electricity_normed="0"
            traveltime="757.11" CO_perVeh="51468.960151" CO2_perVeh="1483975.819756" HC_perVeh="269.492666" PMx_perVeh="32.932015" NOx_perVeh="662.555979" fuel_perVeh="637.910686" electricity_perVeh="0"/>
            <lane id="2_1" sampledSeconds="4697862.47" CO_abs="430598234.681934" CO2_abs="12973960536.131771" HC_abs="2266952.102039" PMx_abs="280247.266045" NOx_abs="5743381.174131" fuel_abs="5577059.053508" electricity_abs="0"
            CO_normed="31096.361983" CO2_normed="936935.966501" HC_normed="163.711686" PMx_normed="20.238519" NOx_normed="414.767748" fuel_normed="402.756521" electricity_normed="0"
            traveltime="460.30" CO_perVeh="42189.930081" CO2_perVeh="1271186.093698" HC_perVeh="222.115520" PMx_perVeh="27.458572" NOx_perVeh="562.735354" fuel_perVeh="546.439146" electricity_perVeh="0"/>
            <lane id="2_2" sampledSeconds="4661975.89" CO_abs="428055390.025777" CO2_abs="12968626807.556438" HC_abs="2255333.125974" PMx_abs="280234.003248" NOx_abs="5741850.501407" fuel_abs="5574764.068413" electricity_abs="0"
            CO_normed="30912.726261" CO2_normed="936550.782492" HC_normed="162.872603" PMx_normed="20.237561" NOx_normed="414.657208" fuel_normed="402.590785" electricity_normed="0"
            traveltime="456.97" CO_perVeh="41958.600205" CO2_perVeh="1271203.307120" HC_perVeh="221.070972" PMx_perVeh="27.468937" NOx_perVeh="562.824380" fuel_perVeh="546.446330" electricity_perVeh="0"/>
        </edge>
        <edge id="3">
            <lane id="3_0" sampledSeconds="475269.84" CO_abs="43874321.794684" CO2_abs="1349104259.738149" HC_abs="231662.683169" PMx_abs="29200.342381" NOx_abs="597688.406225" fuel_abs="579932.613784" electricity_abs="0"
            CO_normed="31589.511692" CO2_normed="971355.067011" HC_normed="166.797132" PMx_normed="21.024247" NOx_normed="430.335652" fuel_normed="417.551482" electricity_normed="0"
            traveltime="45.19" CO_perVeh="4171.360350" CO2_perVeh="128266.370566" HC_perVeh="22.025378" PMx_perVeh="2.776229" NOx_perVeh="56.825351" fuel_perVeh="55.137215" electricity_perVeh="0"/>
            <lane id="3_1" sampledSeconds="475468.45" CO_abs="43886455.678560" CO2_abs="1349331852.169116" HC_abs="231723.578827" PMx_abs="29207.389769" NOx_abs="597802.582328" fuel_abs="580030.448634" electricity_abs="0"
            CO_normed="31598.248089" CO2_normed="971518.933562" HC_normed="166.840977" PMx_normed="21.029321" NOx_normed="430.417859" fuel_normed="417.621923" electricity_normed="0"
            traveltime="45.22" CO_perVeh="4174.205082" CO2_perVeh="128340.003483" HC_perVeh="22.040097" PMx_perVeh="2.778024" NOx_perVeh="56.859241" fuel_perVeh="55.168867" electricity_perVeh="0"/>
        </edge>
        <edge id="4">
            <lane id="4_0" sampledSeconds="91444.10" CO_abs="7478609.986480" CO2_abs="497705534.917396" HC_abs="44844.521564" PMx_abs="8966.604479" NOx_abs="203884.784517" fuel_abs="213941.798323" electricity_abs="0"
            CO_normed="5384.599190" CO2_normed="358347.985141" HC_normed="32.288056" PMx_normed="6.455955" NOx_normed="146.797045" fuel_normed="154.038095" electricity_normed="0"
            traveltime="8.69" CO_perVeh="710.856508" CO2_perVeh="47307.884666" HC_perVeh="4.262559" PMx_perVeh="0.852293" NOx_perVeh="19.379648" fuel_perVeh="20.335586" electricity_perVeh="0"/>
            <lane id="4_1" sampledSeconds="91269.32" CO_abs="7469257.229829" CO2_abs="496950863.187367" HC_abs="44784.752921" PMx_abs="8954.439074" NOx_abs="203587.064927" fuel_abs="213617.397116" electricity_abs="0"
            CO_normed="5377.865205" CO2_normed="357804.621495" HC_normed="32.245022" PMx_normed="6.447196" NOx_normed="146.582687" fuel_normed="153.804526" electricity_normed="0"
            traveltime="8.69" CO_perVeh="711.377091" CO2_perVeh="47329.935061" HC_perVeh="4.265330" PMx_perVeh="0.852827" NOx_perVeh="19.389769" fuel_perVeh="20.345065" electricity_perVeh="0"/>
        </edge>
    </interval>
</meandata>
