<?xml version="1.0" encoding="UTF-8"?>

<!-- generated on Thu Apr 16 21:31:41 2020 by SUMO Version 0.32.0
<?xml version="1.0" encoding="UTF-8"?>

<configuration xmlns:xsi="http://www.w3.org/2001/XMLSchema-instance" xsi:noNamespaceSchemaLocation="http://sumo.dlr.de/xsd/sumoConfiguration.xsd">

    <input>
        <net-file value="base.net.xml"/>
        <route-files value="base.rou.xml"/>
        <additional-files value="additional.xml"/>
    </input>

    <time>
        <begin value="0"/>
        <end value="50000"/>
    </time>

    <random_number>
        <seed value="44076"/>
    </random_number>

</configuration>
-->

<meandata xmlns:xsi="http://www.w3.org/2001/XMLSchema-instance" xsi:noNamespaceSchemaLocation="http://sumo.dlr.de/xsd/meandata_file.xsd">
    <interval begin="0.00" end="50000.00" id="mid">
        <edge id="1">
            <lane id="1_0" sampledSeconds="984503.00" CO_abs="88580192.681523" CO2_abs="2506120447.400338" HC_abs="462327.819583" PMx_abs="53959.189020" NOx_abs="1106621.060254" fuel_abs="1077299.981459" electricity_abs="0"
            CO_normed="31888.869365" CO2_normed="902203.361064" HC_normed="166.438015" PMx_normed="19.425308" NOx_normed="398.383582" fuel_normed="387.827993" electricity_normed="0"
            traveltime="95.40" CO_perVeh="8583.167377" CO2_perVeh="242835.905141" HC_perVeh="44.798244" PMx_perVeh="5.228491" NOx_perVeh="107.228416" fuel_perVeh="104.387288" electricity_perVeh="0"/>
            <lane id="1_1" sampledSeconds="952115.35" CO_abs="87502208.250337" CO2_abs="2606560720.402161" HC_abs="459940.090484" PMx_abs="56313.304411" NOx_abs="1153645.818596" fuel_abs="1120471.598084" electricity_abs="0"
            CO_normed="31500.794970" CO2_normed="938361.859345" HC_normed="165.578433" PMx_normed="20.272790" NOx_normed="415.312495" fuel_normed="403.369775" electricity_normed="0"
            traveltime="92.58" CO_perVeh="8508.796116" CO2_perVeh="253464.388800" HC_perVeh="44.725002" PMx_perVeh="5.475958" NOx_perVeh="112.181592" fuel_perVeh="108.955700" electricity_perVeh="0"/>
        </edge>
        <edge id="2">
            <lane id="2_0" sampledSeconds="1882457.60" CO_abs="147336726.224096" CO2_abs="3553460055.580247" HC_abs="752682.802149" PMx_abs="75709.974771" NOx_abs="1549904.442264" fuel_abs="1527538.395117" electricity_abs="0"
            CO_normed="10640.164782" CO2_normed="256618.980945" HC_normed="54.356230" PMx_normed="5.467521" NOx_normed="111.928907" fuel_normed="110.313706" electricity_normed="0"
            traveltime="372.87" CO_perVeh="29183.597423" CO2_perVeh="703848.594839" HC_perVeh="149.087009" PMx_perVeh="14.996189" NOx_perVeh="306.996011" fuel_perVeh="302.565876" electricity_perVeh="0"/>
            <lane id="2_1" sampledSeconds="5905673.34" CO_abs="532169772.449330" CO2_abs="11343054706.005053" HC_abs="2689377.058763" PMx_abs="259534.600454" NOx_abs="5088778.546497" fuel_abs="4876102.575561" electricity_abs="0"
            CO_normed="38431.518171" CO2_normed="819157.411066" HC_normed="194.217802" PMx_normed="18.742719" NOx_normed="367.494539" fuel_normed="352.135793" electricity_normed="0"
            traveltime="1110.55" CO_perVeh="100073.106461" CO2_perVeh="2133031.186585" HC_perVeh="505.730184" PMx_perVeh="48.804789" NOx_perVeh="956.931234" fuel_perVeh="916.938085" electricity_perVeh="0"/>
            <lane id="2_2" sampledSeconds="4802839.07" CO_abs="436377738.734467" CO2_abs="12910115685.159082" HC_abs="2291431.160997" PMx_abs="278454.136704" NOx_abs="5711850.710917" fuel_abs="5549621.799152" electricity_abs="0"
            CO_normed="31513.738404" CO2_normed="932325.305247" HC_normed="165.479482" PMx_normed="20.109025" NOx_normed="412.490723" fuel_normed="400.775095" electricity_normed="0"
            traveltime="470.98" CO_perVeh="42792.098447" CO2_perVeh="1265992.493035" HC_perVeh="224.702452" PMx_perVeh="27.305785" NOx_perVeh="560.115827" fuel_perVeh="544.207326" electricity_perVeh="0"/>
        </edge>
        <edge id="3">
            <lane id="3_0" sampledSeconds="490630.83" CO_abs="45497802.423278" CO2_abs="1367364135.974865" HC_abs="239449.704289" PMx_abs="29562.597584" NOx_abs="605508.008888" fuel_abs="587782.831647" electricity_abs="0"
            CO_normed="32758.417745" CO2_normed="984502.177902" HC_normed="172.403787" PMx_normed="21.285070" NOx_normed="435.965766" fuel_normed="423.203639" electricity_normed="0"
            traveltime="46.12" CO_perVeh="4276.575833" CO2_perVeh="128525.689311" HC_perVeh="22.507127" PMx_perVeh="2.778743" NOx_perVeh="56.914857" fuel_perVeh="55.248775" electricity_perVeh="0"/>
            <lane id="3_1" sampledSeconds="473960.31" CO_abs="43694454.377075" CO2_abs="1341204296.352792" HC_abs="230649.411617" PMx_abs="29002.170102" NOx_abs="594010.068321" fuel_abs="576536.804299" electricity_abs="0"
            CO_normed="31460.007151" CO2_normed="965667.093374" HC_normed="166.067576" PMx_normed="20.881562" NOx_normed="427.687249" fuel_normed="415.106499" electricity_normed="0"
            traveltime="45.09" CO_perVeh="4157.202148" CO2_perVeh="127605.607200" HC_perVeh="21.944575" PMx_perVeh="2.759341" NOx_perVeh="56.515637" fuel_perVeh="54.853186" electricity_perVeh="0"/>
        </edge>
        <edge id="4">
            <lane id="4_0" sampledSeconds="94467.16" CO_abs="7615725.584722" CO2_abs="510838427.146521" HC_abs="45788.186978" PMx_abs="9173.663614" NOx_abs="209040.053726" fuel_abs="219587.057461" electricity_abs="0"
            CO_normed="5483.322421" CO2_normed="367803.667545" HC_normed="32.967495" PMx_normed="6.605038" NOx_normed="150.508839" fuel_normed="158.102681" electricity_normed="0"
            traveltime="8.67" CO_perVeh="698.703225" CO2_perVeh="46866.769634" HC_perVeh="4.200828" PMx_perVeh="0.841636" NOx_perVeh="19.178338" fuel_perVeh="20.145971" electricity_perVeh="0"/>
            <lane id="4_1" sampledSeconds="89347.23" CO_abs="7384313.662822" CO2_abs="488681533.240398" HC_abs="44228.083801" PMx_abs="8830.573841" NOx_abs="200409.013104" fuel_abs="210062.766136" electricity_abs="0"
            CO_normed="5316.705837" CO2_normed="351850.703933" HC_normed="31.844220" PMx_normed="6.358013" NOx_normed="144.294489" fuel_normed="151.245192" electricity_normed="0"
            traveltime="8.72" CO_perVeh="720.367802" CO2_perVeh="47672.736822" HC_perVeh="4.314617" PMx_perVeh="0.861456" NOx_perVeh="19.550659" fuel_perVeh="20.492419" electricity_perVeh="0"/>
        </edge>
    </interval>
</meandata>
