<?xml version="1.0" encoding="UTF-8"?>

<!-- generated on Wed Apr  8 19:30:32 2020 by SUMO Version 0.32.0
<?xml version="1.0" encoding="UTF-8"?>

<configuration xmlns:xsi="http://www.w3.org/2001/XMLSchema-instance" xsi:noNamespaceSchemaLocation="http://sumo.dlr.de/xsd/sumoConfiguration.xsd">

    <input>
        <net-file value="base.net.xml"/>
        <route-files value="base.rou.xml"/>
        <additional-files value="additional.xml"/>
    </input>

    <time>
        <begin value="0"/>
        <end value="50000"/>
    </time>

</configuration>
-->

<meandata xmlns:xsi="http://www.w3.org/2001/XMLSchema-instance" xsi:noNamespaceSchemaLocation="http://sumo.dlr.de/xsd/meandata_file.xsd">
    <interval begin="0.00" end="50000.00" id="mid">
        <edge id="1">
            <lane id="1_0" sampledSeconds="1055145.95" CO_abs="77482790.028392" CO2_abs="1596730959.724655" HC_abs="389906.762104" PMx_abs="34982.597656" NOx_abs="706330.542310" fuel_abs="686400.265817" electricity_abs="0"
            CO_normed="27893.804410" CO2_normed="574823.145501" HC_normed="140.366434" PMx_normed="12.593735" NOx_normed="254.278995" fuel_normed="247.104096" electricity_normed="0"
            traveltime="131.41" CO_perVeh="9650.046615" CO2_perVeh="198863.879151" HC_perVeh="48.560699" PMx_perVeh="4.356886" NOx_perVeh="87.969505" fuel_perVeh="85.487301" electricity_perVeh="0"/>
            <lane id="1_1" sampledSeconds="1048548.47" CO_abs="75639565.485758" CO2_abs="1553145767.813713" HC_abs="380430.083752" PMx_abs="33751.997227" NOx_abs="685909.046531" fuel_abs="667664.517185" electricity_abs="0"
            CO_normed="27230.243575" CO2_normed="559132.476413" HC_normed="136.954830" PMx_normed="12.150719" NOx_normed="246.927257" fuel_normed="240.359226" electricity_normed="0"
            traveltime="129.83" CO_perVeh="9365.728184" CO2_perVeh="192311.272513" HC_perVeh="47.105040" PMx_perVeh="4.179189" NOx_perVeh="84.929595" fuel_perVeh="82.670549" electricity_perVeh="0"/>
        </edge>
        <edge id="2">
            <lane id="2_0" sampledSeconds="282099.74" CO_abs="10288918.682387" CO2_abs="532100243.511192" HC_abs="59176.539704" PMx_abs="8823.998343" NOx_abs="211367.764352" fuel_abs="228730.064327" electricity_abs="0"
            CO_normed="743.031239" CO2_normed="38426.497024" HC_normed="4.273531" PMx_normed="0.637240" NOx_normed="15.264272" fuel_normed="16.518119" electricity_normed="0"
            traveltime="112.13" CO_perVeh="4089.548351" CO2_perVeh="211494.496199" HC_perVeh="23.520967" PMx_perVeh="3.507285" NOx_perVeh="84.012589" fuel_perVeh="90.913602" electricity_perVeh="0"/>
            <lane id="2_1" sampledSeconds="5662484.88" CO_abs="424631708.278719" CO2_abs="7776664112.605356" HC_abs="2114155.347598" PMx_abs="177005.626375" NOx_abs="3474677.728869" fuel_abs="3343051.662831" electricity_abs="0"
            CO_normed="30665.479434" CO2_normed="561604.629998" HC_normed="152.677217" PMx_normed="12.782753" NOx_normed="250.929585" fuel_normed="241.423992" electricity_normed="0"
            traveltime="1024.70" CO_perVeh="76842.696516" CO2_perVeh="1407289.725808" HC_perVeh="382.584236" PMx_perVeh="32.031498" NOx_perVeh="628.788668" fuel_perVeh="604.969199" electricity_perVeh="0"/>
            <lane id="2_2" sampledSeconds="5243581.15" CO_abs="371972995.317386" CO2_abs="7622599674.719975" HC_abs="1870421.332875" PMx_abs="165473.388505" NOx_abs="3365930.489958" fuel_abs="3276795.216482" electricity_abs="0"
            CO_normed="26862.643594" CO2_normed="550478.612417" HC_normed="135.075563" PMx_normed="11.949934" NOx_normed="243.076224" fuel_normed="236.639173" electricity_normed="0"
            traveltime="654.06" CO_perVeh="46398.471043" CO2_perVeh="950813.566400" HC_perVeh="233.309114" PMx_perVeh="20.640510" NOx_perVeh="419.853135" fuel_perVeh="408.734747" electricity_perVeh="0"/>
        </edge>
        <edge id="3">
            <lane id="3_0" sampledSeconds="548779.37" CO_abs="38325975.112778" CO2_abs="827724938.160537" HC_abs="193760.216643" PMx_abs="17979.716596" NOx_abs="365835.965159" fuel_abs="355819.722813" electricity_abs="0"
            CO_normed="27594.702081" CO2_normed="595961.955476" HC_normed="139.507356" PMx_normed="12.945396" NOx_normed="263.401895" fuel_normed="256.190200" electricity_normed="0"
            traveltime="66.00" CO_perVeh="4609.227833" CO2_perVeh="99545.355648" HC_perVeh="23.302342" PMx_perVeh="2.162309" NOx_perVeh="43.996827" fuel_perVeh="42.792236" electricity_perVeh="0"/>
            <lane id="3_1" sampledSeconds="548264.94" CO_abs="38156312.899315" CO2_abs="825210321.807248" HC_abs="192929.203103" PMx_abs="17917.586529" NOx_abs="364689.037493" fuel_abs="354738.712232" electricity_abs="0"
            CO_normed="27472.545288" CO2_normed="594151.431701" HC_normed="138.909026" PMx_normed="12.900662" NOx_normed="262.576107" fuel_normed="255.411873" electricity_normed="0"
            traveltime="65.79" CO_perVeh="4578.779463" CO2_perVeh="99025.712572" HC_perVeh="23.151615" PMx_perVeh="2.150121" NOx_perVeh="43.762894" fuel_perVeh="42.568849" electricity_perVeh="0"/>
        </edge>
        <edge id="4">
            <lane id="4_0" sampledSeconds="93979.68" CO_abs="7924908.471208" CO2_abs="424981616.089275" HC_abs="46138.430680" PMx_abs="8158.036506" NOx_abs="178924.919187" fuel_abs="182681.511196" electricity_abs="0"
            CO_normed="5705.934099" CO2_normed="305986.763584" HC_normed="33.219670" PMx_normed="5.873786" NOx_normed="128.825942" fuel_normed="131.530688" electricity_normed="0"
            traveltime="10.03" CO_perVeh="845.857352" CO2_perVeh="45359.996982" HC_perVeh="4.924540" PMx_perVeh="0.870740" NOx_perVeh="19.097376" fuel_perVeh="19.498332" electricity_perVeh="0"/>
            <lane id="4_1" sampledSeconds="75511.92" CO_abs="6790047.274023" CO2_abs="345598411.322343" HC_abs="39092.738718" PMx_abs="6699.965020" NOx_abs="146132.675478" fuel_abs="148558.223591" electricity_abs="0"
            CO_normed="4888.834037" CO2_normed="248830.856152" HC_normed="28.146772" PMx_normed="4.823975" NOx_normed="105.215526" fuel_normed="106.961921" electricity_normed="0"
            traveltime="10.56" CO_perVeh="949.353030" CO2_perVeh="48319.972710" HC_perVeh="5.465766" PMx_perVeh="0.936758" NOx_perVeh="20.431595" fuel_perVeh="20.770724" electricity_perVeh="0"/>
        </edge>
    </interval>
</meandata>
