<?xml version="1.0" encoding="UTF-8"?>

<!-- generated on Thu Apr 16 18:48:53 2020 by SUMO Version 0.32.0
<?xml version="1.0" encoding="UTF-8"?>

<configuration xmlns:xsi="http://www.w3.org/2001/XMLSchema-instance" xsi:noNamespaceSchemaLocation="http://sumo.dlr.de/xsd/sumoConfiguration.xsd">

    <input>
        <net-file value="base.net.xml"/>
        <route-files value="base.rou.xml"/>
        <additional-files value="additional.xml"/>
    </input>

    <time>
        <begin value="0"/>
        <end value="50000"/>
    </time>

    <random_number>
        <seed value="14251"/>
    </random_number>

</configuration>
-->

<meandata xmlns:xsi="http://www.w3.org/2001/XMLSchema-instance" xsi:noNamespaceSchemaLocation="http://sumo.dlr.de/xsd/meandata_file.xsd">
    <interval begin="0.00" end="50000.00" id="mid">
        <edge id="1">
            <lane id="1_0" sampledSeconds="984744.12" CO_abs="88789928.658931" CO2_abs="2506778842.325985" HC_abs="463295.192508" PMx_abs="53983.897413" NOx_abs="1106935.349092" fuel_abs="1077583.152175" electricity_abs="0"
            CO_normed="31964.374317" CO2_normed="902440.383237" HC_normed="166.786269" PMx_normed="19.434203" NOx_normed="398.496726" fuel_normed="387.929935" electricity_normed="0"
            traveltime="95.39" CO_perVeh="8600.783531" CO2_perVeh="242823.285348" HC_perVeh="44.877856" PMx_perVeh="5.229240" NOx_perVeh="107.225126" fuel_perVeh="104.381877" electricity_perVeh="0"/>
            <lane id="1_1" sampledSeconds="964398.71" CO_abs="88397789.245848" CO2_abs="2610603361.101261" HC_abs="464084.853671" PMx_abs="56368.543512" NOx_abs="1155173.781496" fuel_abs="1122210.096377" electricity_abs="0"
            CO_normed="31823.204129" CO2_normed="939817.209996" HC_normed="167.070547" PMx_normed="20.292676" NOx_normed="415.862561" fuel_normed="403.995635" electricity_normed="0"
            traveltime="93.68" CO_perVeh="8586.911530" CO2_perVeh="253592.542231" HC_perVeh="45.080942" PMx_perVeh="5.475609" NOx_perVeh="112.212931" fuel_perVeh="109.010858" electricity_perVeh="0"/>
        </edge>
        <edge id="2">
            <lane id="2_0" sampledSeconds="2232498.53" CO_abs="183209768.817398" CO2_abs="4259837239.910285" HC_abs="932772.379258" PMx_abs="92611.147140" NOx_abs="1872196.932674" fuel_abs="1831193.886195" electricity_abs="0"
            CO_normed="13230.795742" CO2_normed="307631.174798" HC_normed="67.361696" PMx_normed="6.688067" NOx_normed="135.203791" fuel_normed="132.242688" electricity_normed="0"
            traveltime="445.86" CO_perVeh="36589.661184" CO2_perVeh="850751.585546" HC_perVeh="186.288240" PMx_perVeh="18.495796" NOx_perVeh="373.905015" fuel_perVeh="365.716109" electricity_perVeh="0"/>
            <lane id="2_1" sampledSeconds="5891031.52" CO_abs="539723825.841583" CO2_abs="11483522823.350975" HC_abs="2727075.718614" PMx_abs="262907.888510" NOx_abs="5152302.607407" fuel_abs="4936487.028540" electricity_abs="0"
            CO_normed="38977.046600" CO2_normed="829301.547925" HC_normed="196.940273" PMx_normed="18.986327" NOx_normed="372.082034" fuel_normed="356.496556" electricity_normed="0"
            traveltime="1098.14" CO_perVeh="100609.621925" CO2_perVeh="2140637.182037" HC_perVeh="508.352687" PMx_perVeh="49.008515" NOx_perVeh="960.437899" fuel_perVeh="920.207836" electricity_perVeh="0"/>
            <lane id="2_2" sampledSeconds="4849788.67" CO_abs="439825305.845167" CO2_abs="12926548491.992184" HC_abs="2307405.375076" PMx_abs="278703.295617" NOx_abs="5718327.950330" fuel_abs="5556688.353146" electricity_abs="0"
            CO_normed="31762.710151" CO2_normed="933512.027506" HC_normed="166.633086" PMx_normed="20.127018" NOx_normed="412.958488" fuel_normed="401.285418" electricity_normed="0"
            traveltime="475.08" CO_perVeh="43084.675560" CO2_perVeh="1266266.721095" HC_perVeh="226.030223" PMx_perVeh="27.301387" NOx_perVeh="560.159457" fuel_perVeh="544.325467" electricity_perVeh="0"/>
        </edge>
        <edge id="3">
            <lane id="3_0" sampledSeconds="488613.04" CO_abs="45310021.188854" CO2_abs="1365143428.556122" HC_abs="238546.855833" PMx_abs="29520.936598" NOx_abs="604570.843142" fuel_abs="586828.118178" electricity_abs="0"
            CO_normed="32623.215256" CO2_normed="982903.268560" HC_normed="171.753736" PMx_normed="21.255074" NOx_normed="435.291007" fuel_normed="422.516245" electricity_normed="0"
            traveltime="46.01" CO_perVeh="4266.908940" CO2_perVeh="128557.492287" HC_perVeh="22.464296" PMx_perVeh="2.780028" NOx_perVeh="56.933294" fuel_perVeh="55.262436" electricity_perVeh="0"/>
            <lane id="3_1" sampledSeconds="474838.66" CO_abs="43765790.329271" CO2_abs="1341783548.744508" HC_abs="230984.868546" PMx_abs="29007.048746" NOx_abs="594215.612579" fuel_abs="576785.861380" electricity_abs="0"
            CO_normed="31511.369037" CO2_normed="966084.155096" HC_normed="166.309105" PMx_normed="20.885075" NOx_normed="427.835241" fuel_normed="415.285820" electricity_normed="0"
            traveltime="45.11" CO_perVeh="4158.138411" CO2_perVeh="127481.342646" HC_perVeh="21.945612" PMx_perVeh="2.755927" NOx_perVeh="56.455756" fuel_perVeh="54.799775" electricity_perVeh="0"/>
        </edge>
        <edge id="4">
            <lane id="4_0" sampledSeconds="94749.77" CO_abs="7629184.348665" CO2_abs="511830258.475871" HC_abs="45872.719457" PMx_abs="9189.331070" NOx_abs="209430.337829" fuel_abs="220013.404995" electricity_abs="0"
            CO_normed="5493.012731" CO2_normed="368517.786103" HC_normed="33.028358" PMx_normed="6.616318" NOx_normed="150.789843" fuel_normed="158.409652" electricity_normed="0"
            traveltime="8.67" CO_perVeh="698.010691" CO2_perVeh="46828.465017" HC_perVeh="4.196995" PMx_perVeh="0.840752" NOx_perVeh="19.161238" fuel_perVeh="20.129506" electricity_perVeh="0"/>
            <lane id="4_1" sampledSeconds="89231.38" CO_abs="7382636.182902" CO2_abs="488157098.821599" HC_abs="44212.766351" PMx_abs="8823.765136" NOx_abs="200218.919046" fuel_abs="209837.335895" electricity_abs="0"
            CO_normed="5315.498052" CO2_normed="351473.111152" HC_normed="31.833192" PMx_normed="6.353111" NOx_normed="144.157622" fuel_normed="151.082882" electricity_normed="0"
            traveltime="8.72" CO_perVeh="721.596017" CO2_perVeh="47713.609293" HC_perVeh="4.321459" PMx_perVeh="0.862455" NOx_perVeh="19.569862" fuel_perVeh="20.509989" electricity_perVeh="0"/>
        </edge>
    </interval>
</meandata>
