<?xml version="1.0" encoding="UTF-8"?>

<!-- generated on Fri Apr 10 19:11:28 2020 by SUMO Version 0.32.0
<?xml version="1.0" encoding="UTF-8"?>

<configuration xmlns:xsi="http://www.w3.org/2001/XMLSchema-instance" xsi:noNamespaceSchemaLocation="http://sumo.dlr.de/xsd/sumoConfiguration.xsd">

    <input>
        <net-file value="base.net.xml"/>
        <route-files value="base.rou.xml"/>
        <additional-files value="additional.xml"/>
    </input>

    <time>
        <begin value="0"/>
        <end value="50000"/>
    </time>

    <random_number>
        <seed value="54005"/>
    </random_number>

</configuration>
-->

<meandata xmlns:xsi="http://www.w3.org/2001/XMLSchema-instance" xsi:noNamespaceSchemaLocation="http://sumo.dlr.de/xsd/meandata_file.xsd">
    <interval begin="0.00" end="50000.00" id="mid">
        <edge id="1">
            <lane id="1_0" sampledSeconds="1054757.00" CO_abs="77501188.091873" CO2_abs="1609696990.523439" HC_abs="390334.359878" PMx_abs="35368.987584" NOx_abs="712430.700670" fuel_abs="691973.435212" electricity_abs="0"
            CO_normed="27900.427713" CO2_normed="579490.916588" HC_normed="140.520370" PMx_normed="12.732836" NOx_normed="256.475052" fuel_normed="249.110437" electricity_normed="0"
            traveltime="131.84" CO_perVeh="9687.515142" CO2_perVeh="201209.353736" HC_perVeh="48.791123" PMx_perVeh="4.421063" NOx_perVeh="89.052612" fuel_perVeh="86.495489" electricity_perVeh="0"/>
            <lane id="1_1" sampledSeconds="1044479.42" CO_abs="75382958.207504" CO2_abs="1552724330.881700" HC_abs="379253.914713" PMx_abs="33716.460424" NOx_abs="685533.625670" fuel_abs="667483.190550" electricity_abs="0"
            CO_normed="27137.864955" CO2_normed="558980.759117" HC_normed="136.531409" PMx_normed="12.137926" NOx_normed="246.792105" fuel_normed="240.293949" electricity_normed="0"
            traveltime="128.48" CO_perVeh="9272.494780" CO2_perVeh="190993.144801" HC_perVeh="46.650198" PMx_perVeh="4.147299" NOx_perVeh="84.324191" fuel_perVeh="82.103894" electricity_perVeh="0"/>
        </edge>
        <edge id="2">
            <lane id="2_0" sampledSeconds="2447286.35" CO_abs="177269161.962169" CO2_abs="3437517895.423100" HC_abs="887148.301604" PMx_abs="76883.990395" NOx_abs="1519803.281319" fuel_abs="1477722.626770" electricity_abs="0"
            CO_normed="12801.785016" CO2_normed="248246.026550" HC_normed="64.066878" PMx_normed="5.552304" NOx_normed="109.755102" fuel_normed="106.716178" electricity_normed="0"
            traveltime="625.59" CO_perVeh="45314.839027" CO2_perVeh="878723.452860" HC_perVeh="226.779334" PMx_perVeh="19.653648" NOx_perVeh="388.503225" fuel_perVeh="377.746260" electricity_perVeh="0"/>
            <lane id="2_1" sampledSeconds="5887360.67" CO_abs="454169503.881569" CO2_abs="7906905272.440143" HC_abs="2251996.883619" PMx_abs="184632.904763" NOx_abs="3556123.267278" fuel_abs="3399052.837569" electricity_abs="0"
            CO_normed="32798.600080" CO2_normed="571010.210246" HC_normed="162.631671" PMx_normed="13.333570" NOx_normed="256.811309" fuel_normed="245.468209" electricity_normed="0"
            traveltime="1416.72" CO_perVeh="109290.413158" CO2_perVeh="1902701.384923" HC_perVeh="541.915888" PMx_perVeh="44.429682" NOx_perVeh="855.738172" fuel_perVeh="817.941068" electricity_perVeh="0"/>
            <lane id="2_2" sampledSeconds="5230534.18" CO_abs="370579191.536035" CO2_abs="7598523465.411571" HC_abs="1863515.265632" PMx_abs="164910.552252" NOx_abs="3355050.056606" fuel_abs="3266445.233600" electricity_abs="0"
            CO_normed="26761.987754" CO2_normed="548739.909237" HC_normed="134.576830" PMx_normed="11.909288" NOx_normed="242.290476" fuel_normed="235.891732" electricity_normed="0"
            traveltime="652.70" CO_perVeh="46243.224067" CO2_perVeh="948191.995698" HC_perVeh="232.541265" PMx_perVeh="20.578586" NOx_perVeh="418.664445" fuel_perVeh="407.607773" electricity_perVeh="0"/>
        </edge>
        <edge id="3">
            <lane id="3_0" sampledSeconds="548775.03" CO_abs="38344185.909636" CO2_abs="827479737.193494" HC_abs="193836.496927" PMx_abs="17973.848415" NOx_abs="365719.583131" fuel_abs="355714.343208" electricity_abs="0"
            CO_normed="27607.813855" CO2_normed="595785.410779" HC_normed="139.562278" PMx_normed="12.941171" NOx_normed="263.318100" fuel_normed="256.114327" electricity_normed="0"
            traveltime="65.93" CO_perVeh="4606.704201" CO2_perVeh="99414.143018" HC_perVeh="23.287687" PMx_perVeh="2.159394" NOx_perVeh="43.937872" fuel_perVeh="42.735834" electricity_perVeh="0"/>
            <lane id="3_1" sampledSeconds="548171.52" CO_abs="38177369.924118" CO2_abs="825713115.831664" HC_abs="193036.579004" PMx_abs="17927.229153" NOx_abs="364904.152799" fuel_abs="354954.851634" electricity_abs="0"
            CO_normed="27487.706345" CO2_normed="594513.443399" HC_normed="138.986337" PMx_normed="12.907605" NOx_normed="262.730990" fuel_normed="255.567493" electricity_normed="0"
            traveltime="65.75" CO_perVeh="4579.295835" CO2_perVeh="99042.564747" HC_perVeh="23.154335" PMx_perVeh="2.150334" NOx_perVeh="43.769491" fuel_perVeh="42.576094" electricity_perVeh="0"/>
        </edge>
        <edge id="4">
            <lane id="4_0" sampledSeconds="97357.81" CO_abs="8135781.618402" CO2_abs="439466754.367318" HC_abs="47441.504351" PMx_abs="8422.301224" NOx_abs="184902.899804" fuel_abs="188908.029483" electricity_abs="0"
            CO_normed="5857.762765" CO2_normed="316416.063144" HC_normed="34.157883" PMx_normed="6.064057" NOx_normed="133.130088" fuel_normed="136.013781" electricity_normed="0"
            traveltime="9.97" CO_perVeh="833.203717" CO2_perVeh="45006.779993" HC_perVeh="4.858591" PMx_perVeh="0.862547" NOx_perVeh="18.936322" fuel_perVeh="19.346497" electricity_perVeh="0"/>
            <lane id="4_1" sampledSeconds="72372.55" CO_abs="6593889.287696" CO2_abs="331626722.561020" HC_abs="37868.816440" PMx_abs="6442.162049" NOx_abs="140353.749974" fuel_abs="142552.424651" electricity_abs="0"
            CO_normed="4747.600287" CO2_normed="238771.240244" HC_normed="27.265548" PMx_normed="4.638357" NOx_normed="101.054700" fuel_normed="102.637746" electricity_normed="0"
            traveltime="10.69" CO_perVeh="974.251216" CO2_perVeh="48998.053159" HC_perVeh="5.595141" PMx_perVeh="0.951833" NOx_perVeh="20.737353" fuel_perVeh="21.062209" electricity_perVeh="0"/>
        </edge>
    </interval>
</meandata>
