<?xml version="1.0" encoding="UTF-8"?>

<!-- generated on Fri Apr 10 18:55:50 2020 by SUMO Version 0.32.0
<?xml version="1.0" encoding="UTF-8"?>

<configuration xmlns:xsi="http://www.w3.org/2001/XMLSchema-instance" xsi:noNamespaceSchemaLocation="http://sumo.dlr.de/xsd/sumoConfiguration.xsd">

    <input>
        <net-file value="base.net.xml"/>
        <route-files value="base.rou.xml"/>
        <additional-files value="additional.xml"/>
    </input>

    <time>
        <begin value="0"/>
        <end value="50000"/>
    </time>

    <random_number>
        <seed value="26624"/>
    </random_number>

</configuration>
-->

<meandata xmlns:xsi="http://www.w3.org/2001/XMLSchema-instance" xsi:noNamespaceSchemaLocation="http://sumo.dlr.de/xsd/meandata_file.xsd">
    <interval begin="0.00" end="50000.00" id="mid">
        <edge id="1">
            <lane id="1_0" sampledSeconds="1053851.58" CO_abs="76858651.749921" CO2_abs="1576582134.399732" HC_abs="386557.001545" PMx_abs="34415.842537" NOx_abs="696926.431651" fuel_abs="677739.180419" electricity_abs="0"
            CO_normed="27669.114630" CO2_normed="567569.568384" HC_normed="139.160521" PMx_normed="12.389703" NOx_normed="250.893515" fuel_normed="243.986105" electricity_normed="0"
            traveltime="131.22" CO_perVeh="9570.351416" CO2_perVeh="196314.204301" HC_perVeh="48.133636" PMx_perVeh="4.285421" NOx_perVeh="86.780482" fuel_perVeh="84.391308" electricity_perVeh="0"/>
            <lane id="1_1" sampledSeconds="1050193.99" CO_abs="75786834.424448" CO2_abs="1554206537.139399" HC_abs="381124.928200" PMx_abs="33788.719675" NOx_abs="686462.976944" fuel_abs="668120.580688" electricity_abs="0"
            CO_normed="27283.260393" CO2_normed="559514.353370" HC_normed="137.204974" PMx_normed="12.163939" NOx_normed="247.126672" fuel_normed="240.523409" electricity_normed="0"
            traveltime="130.53" CO_perVeh="9419.484041" CO2_perVeh="193171.067028" HC_perVeh="47.369707" PMx_perVeh="4.199573" NOx_perVeh="85.319925" fuel_perVeh="83.040164" electricity_perVeh="0"/>
        </edge>
        <edge id="2">
            <lane id="2_0" sampledSeconds="124570.89" CO_abs="3932707.476727" CO2_abs="251802718.169354" HC_abs="23738.973290" PMx_abs="4011.144246" NOx_abs="98749.551421" fuel_abs="108240.076377" electricity_abs="0"
            CO_normed="284.006959" CO2_normed="18184.348754" HC_normed="1.714349" PMx_normed="0.289671" NOx_normed="7.131362" fuel_normed="7.816736" electricity_normed="0"
            traveltime="96.33" CO_perVeh="3041.283832" CO2_perVeh="194726.798307" HC_perVeh="18.358079" PMx_perVeh="3.101941" NOx_perVeh="76.366070" fuel_perVeh="83.705385" electricity_perVeh="0"/>
            <lane id="2_1" sampledSeconds="5461932.29" CO_abs="398684260.587890" CO2_abs="7678622928.949517" HC_abs="1993497.229167" PMx_abs="170778.048111" NOx_abs="3410932.684075" fuel_abs="3300893.346253" electricity_abs="0"
            CO_normed="28791.641687" CO2_normed="554524.424157" HC_normed="143.963692" PMx_normed="12.333019" NOx_normed="246.326132" fuel_normed="238.379459" electricity_normed="0"
            traveltime="810.81" CO_perVeh="59183.746182" CO2_perVeh="1139873.617738" HC_perVeh="295.930002" PMx_perVeh="25.351602" NOx_perVeh="506.344981" fuel_perVeh="490.009898" electricity_perVeh="0"/>
            <lane id="2_2" sampledSeconds="5250361.62" CO_abs="372230202.574465" CO2_abs="7621198157.293883" HC_abs="1871560.404368" PMx_abs="165489.473506" NOx_abs="3365525.132778" fuel_abs="3276192.950251" electricity_abs="0"
            CO_normed="26881.218240" CO2_normed="550377.399524" HC_normed="135.157823" PMx_normed="11.951095" NOx_normed="243.046950" fuel_normed="236.595679" electricity_normed="0"
            traveltime="655.69" CO_perVeh="46486.204218" CO2_perVeh="951778.150926" HC_perVeh="233.731005" PMx_perVeh="20.667258" NOx_perVeh="420.305734" fuel_perVeh="409.149428" electricity_perVeh="0"/>
        </edge>
        <edge id="3">
            <lane id="3_0" sampledSeconds="548805.88" CO_abs="38245630.030267" CO2_abs="826123482.337268" HC_abs="193357.218694" PMx_abs="17944.709527" NOx_abs="365127.644175" fuel_abs="355131.289089" electricity_abs="0"
            CO_normed="27536.853622" CO2_normed="594808.907283" HC_normed="139.217197" PMx_normed="12.920191" NOx_normed="262.891904" fuel_normed="255.694528" electricity_normed="0"
            traveltime="66.01" CO_perVeh="4600.464331" CO2_perVeh="99372.179531" HC_perVeh="23.258422" PMx_perVeh="2.158521" NOx_perVeh="43.920226" fuel_perVeh="42.717791" electricity_perVeh="0"/>
            <lane id="3_1" sampledSeconds="548604.28" CO_abs="38240581.817105" CO2_abs="825827734.556788" HC_abs="193326.903510" PMx_abs="17937.003609" NOx_abs="364989.268438" fuel_abs="355004.163294" electricity_abs="0"
            CO_normed="27533.218908" CO2_normed="594595.968881" HC_normed="139.195371" PMx_normed="12.914643" NOx_normed="262.792273" fuel_normed="255.602998" electricity_normed="0"
            traveltime="65.98" CO_perVeh="4599.066536" CO2_perVeh="99319.532236" HC_perVeh="23.250778" PMx_perVeh="2.157223" NOx_perVeh="43.896035" fuel_perVeh="42.695160" electricity_perVeh="0"/>
        </edge>
        <edge id="4">
            <lane id="4_0" sampledSeconds="91299.11" CO_abs="7749320.741656" CO2_abs="412906346.921359" HC_abs="45052.707410" PMx_abs="7931.654956" NOx_abs="173905.937663" fuel_abs="177490.897962" electricity_abs="0"
            CO_normed="5579.510934" CO2_normed="297292.569783" HC_normed="32.437949" PMx_normed="5.710792" NOx_normed="125.212275" fuel_normed="127.793447" electricity_normed="0"
            traveltime="10.09" CO_perVeh="856.707567" CO2_perVeh="45647.870790" HC_perVeh="4.980694" PMx_perVeh="0.876865" NOx_perVeh="19.225754" fuel_perVeh="19.622080" electricity_perVeh="0"/>
            <lane id="4_1" sampledSeconds="77996.81" CO_abs="6939606.300335" CO2_abs="356204311.254148" HC_abs="40024.892019" PMx_abs="6892.813914" NOx_abs="150499.686010" fuel_abs="153117.226871" electricity_abs="0"
            CO_normed="4996.516536" CO2_normed="256467.104103" HC_normed="28.817922" PMx_normed="4.962826" NOx_normed="108.359774" fuel_normed="110.244403" electricity_normed="0"
            traveltime="10.47" CO_perVeh="931.190047" CO2_perVeh="47797.222926" HC_perVeh="5.370734" PMx_perVeh="0.924911" NOx_perVeh="20.194778" fuel_perVeh="20.546012" electricity_perVeh="0"/>
        </edge>
    </interval>
</meandata>
