<?xml version="1.0" encoding="UTF-8"?>

<!-- generated on Fri Apr 10 19:01:20 2020 by SUMO Version 0.32.0
<?xml version="1.0" encoding="UTF-8"?>

<configuration xmlns:xsi="http://www.w3.org/2001/XMLSchema-instance" xsi:noNamespaceSchemaLocation="http://sumo.dlr.de/xsd/sumoConfiguration.xsd">

    <input>
        <net-file value="base.net.xml"/>
        <route-files value="base.rou.xml"/>
        <additional-files value="additional.xml"/>
    </input>

    <time>
        <begin value="0"/>
        <end value="50000"/>
    </time>

    <random_number>
        <seed value="28199"/>
    </random_number>

</configuration>
-->

<meandata xmlns:xsi="http://www.w3.org/2001/XMLSchema-instance" xsi:noNamespaceSchemaLocation="http://sumo.dlr.de/xsd/meandata_file.xsd">
    <interval begin="0.00" end="50000.00" id="mid">
        <edge id="1">
            <lane id="1_0" sampledSeconds="1055158.27" CO_abs="77516952.740111" CO2_abs="1596663218.348785" HC_abs="390058.014059" PMx_abs="34973.886159" NOx_abs="706275.461932" fuel_abs="686371.186121" electricity_abs="0"
            CO_normed="27906.102986" CO2_normed="574798.758606" HC_normed="140.420885" PMx_normed="12.590599" NOx_normed="254.259166" fuel_normed="247.093627" electricity_normed="0"
            traveltime="131.45" CO_perVeh="9657.014326" CO2_perVeh="198911.322332" HC_perVeh="48.593188" PMx_perVeh="4.357025" NOx_perVeh="87.987363" fuel_perVeh="85.507700" electricity_perVeh="0"/>
            <lane id="1_1" sampledSeconds="1048170.78" CO_abs="75577407.740730" CO2_abs="1552166566.787477" HC_abs="380123.493770" PMx_abs="33723.989494" NOx_abs="685434.306178" fuel_abs="667243.577153" electricity_abs="0"
            CO_normed="27207.866787" CO2_normed="558779.964043" HC_normed="136.844458" PMx_normed="12.140636" NOx_normed="246.756350" fuel_normed="240.207688" electricity_normed="0"
            traveltime="129.70" CO_perVeh="9351.804678" CO2_perVeh="192062.138593" HC_perVeh="47.035758" PMx_perVeh="4.172942" NOx_perVeh="84.814337" fuel_perVeh="82.563451" electricity_perVeh="0"/>
        </edge>
        <edge id="2">
            <lane id="2_0" sampledSeconds="272382.03" CO_abs="10012384.961082" CO2_abs="514710064.476247" HC_abs="57516.095078" PMx_abs="8552.085822" NOx_abs="204592.585879" fuel_abs="221254.697774" electricity_abs="0"
            CO_normed="723.060900" CO2_normed="37170.636552" HC_normed="4.153620" PMx_normed="0.617603" NOx_normed="14.774991" fuel_normed="15.978273" electricity_normed="0"
            traveltime="112.28" CO_perVeh="4127.098762" CO2_perVeh="212163.163752" HC_perVeh="23.708098" PMx_perVeh="3.525164" NOx_perVeh="84.332935" fuel_perVeh="91.201047" electricity_perVeh="0"/>
            <lane id="2_1" sampledSeconds="5647236.73" CO_abs="422314500.454066" CO2_abs="7764593984.795839" HC_abs="2103307.495549" PMx_abs="176419.452303" NOx_abs="3467728.678197" fuel_abs="3337861.935815" electricity_abs="0"
            CO_normed="30498.138448" CO2_normed="560732.965803" HC_normed="151.893821" PMx_normed="12.740422" NOx_normed="250.427748" fuel_normed="241.049207" electricity_normed="0"
            traveltime="1004.53" CO_perVeh="75121.479625" CO2_perVeh="1381169.219148" HC_perVeh="374.137215" PMx_perVeh="31.381566" NOx_perVeh="616.841025" fuel_perVeh="593.740274" electricity_perVeh="0"/>
            <lane id="2_2" sampledSeconds="5243952.32" CO_abs="371778252.292851" CO2_abs="7617534245.063523" HC_abs="1869414.906040" PMx_abs="165360.334116" NOx_abs="3363667.620160" fuel_abs="3274617.745059" electricity_abs="0"
            CO_normed="26848.579905" CO2_normed="550112.804057" HC_normed="135.002882" PMx_normed="11.941769" NOx_normed="242.912807" fuel_normed="236.481923" electricity_normed="0"
            traveltime="654.13" CO_perVeh="46375.565905" CO2_perVeh="950210.129921" HC_perVeh="233.190547" PMx_perVeh="20.627024" NOx_perVeh="419.583417" fuel_perVeh="408.475348" electricity_perVeh="0"/>
        </edge>
        <edge id="3">
            <lane id="3_0" sampledSeconds="548786.94" CO_abs="38353714.541922" CO2_abs="827919733.745671" HC_abs="193890.405368" PMx_abs="17983.270182" NOx_abs="365915.511607" fuel_abs="355903.478193" electricity_abs="0"
            CO_normed="27614.674470" CO2_normed="596102.208297" HC_normed="139.601092" PMx_normed="12.947955" NOx_normed="263.459168" fuel_normed="256.250504" electricity_normed="0"
            traveltime="65.98" CO_perVeh="4611.172859" CO2_perVeh="99538.755269" HC_perVeh="23.310967" PMx_perVeh="2.162084" NOx_perVeh="43.993123" fuel_perVeh="42.789401" electricity_perVeh="0"/>
            <lane id="3_1" sampledSeconds="548359.21" CO_abs="38175670.638504" CO2_abs="825111526.881171" HC_abs="193014.249269" PMx_abs="17914.796495" NOx_abs="364637.641557" fuel_abs="354696.264423" electricity_abs="0"
            CO_normed="27486.482860" CO2_normed="594080.299354" HC_normed="138.970259" PMx_normed="12.898653" NOx_normed="262.539102" fuel_normed="255.381310" electricity_normed="0"
            traveltime="65.82" CO_perVeh="4582.058844" CO2_perVeh="99034.529220" HC_perVeh="23.166656" PMx_perVeh="2.150235" NOx_perVeh="43.765862" fuel_perVeh="42.572642" electricity_perVeh="0"/>
        </edge>
        <edge id="4">
            <lane id="4_0" sampledSeconds="94783.49" CO_abs="7971860.882852" CO2_abs="428384199.413484" HC_abs="46432.955749" PMx_abs="8219.788089" NOx_abs="180326.891217" fuel_abs="184144.129142" electricity_abs="0"
            CO_normed="5739.739836" CO2_normed="308436.623578" HC_normed="33.431728" PMx_normed="5.918247" NOx_normed="129.835362" fuel_normed="132.583773" electricity_normed="0"
            traveltime="10.01" CO_perVeh="842.088917" CO2_perVeh="45251.364981" HC_perVeh="4.904837" PMx_perVeh="0.868278" NOx_perVeh="19.048410" fuel_perVeh="19.451635" electricity_perVeh="0"/>
            <lane id="4_1" sampledSeconds="74717.27" CO_abs="6736540.515375" CO2_abs="342051203.285176" HC_abs="38764.962174" PMx_abs="6631.903194" NOx_abs="144644.744105" fuel_abs="147033.440070" electricity_abs="0"
            CO_normed="4850.309171" CO2_normed="246276.866365" HC_normed="27.910773" PMx_normed="4.774970" NOx_normed="104.144216" fuel_normed="105.864077" electricity_normed="0"
            traveltime="10.59" CO_perVeh="954.676770" CO2_perVeh="48474.188990" HC_perVeh="5.493622" PMx_perVeh="0.939848" NOx_perVeh="20.498500" fuel_perVeh="20.837017" electricity_perVeh="0"/>
        </edge>
    </interval>
</meandata>
