<?xml version="1.0" encoding="UTF-8"?>

<!-- generated on Fri Apr 10 20:09:56 2020 by SUMO Version 0.32.0
<?xml version="1.0" encoding="UTF-8"?>

<configuration xmlns:xsi="http://www.w3.org/2001/XMLSchema-instance" xsi:noNamespaceSchemaLocation="http://sumo.dlr.de/xsd/sumoConfiguration.xsd">

    <input>
        <net-file value="base.net.xml"/>
        <route-files value="base.rou.xml"/>
        <additional-files value="additional.xml"/>
    </input>

    <time>
        <begin value="0"/>
        <end value="50000"/>
    </time>

    <random_number>
        <seed value="88685"/>
    </random_number>

</configuration>
-->

<meandata xmlns:xsi="http://www.w3.org/2001/XMLSchema-instance" xsi:noNamespaceSchemaLocation="http://sumo.dlr.de/xsd/meandata_file.xsd">
    <interval begin="0.00" end="50000.00" id="mid">
        <edge id="1">
            <lane id="1_0" sampledSeconds="1055769.37" CO_abs="77592870.852480" CO2_abs="1600786299.298519" HC_abs="390512.840871" PMx_abs="35105.679086" NOx_abs="708264.724026" fuel_abs="688143.450959" electricity_abs="0"
            CO_normed="27933.433507" CO2_normed="576283.067747" HC_normed="140.584623" PMx_normed="12.638044" NOx_normed="254.975301" fuel_normed="247.731642" electricity_normed="0"
            traveltime="131.75" CO_perVeh="9683.091168" CO2_perVeh="199767.833121" HC_perVeh="48.733491" PMx_perVeh="4.380963" NOx_perVeh="88.386882" fuel_perVeh="85.875876" electricity_perVeh="0"/>
            <lane id="1_1" sampledSeconds="1048346.47" CO_abs="75576754.816791" CO2_abs="1551484764.910408" HC_abs="380105.752815" PMx_abs="33719.477603" NOx_abs="685186.757690" fuel_abs="666950.498385" electricity_abs="0"
            CO_normed="27207.631734" CO2_normed="558534.515368" HC_normed="136.838071" PMx_normed="12.139012" NOx_normed="246.667233" fuel_normed="240.102179" electricity_normed="0"
            traveltime="129.97" CO_perVeh="9369.897566" CO2_perVeh="192350.853881" HC_perVeh="47.124966" PMx_perVeh="4.180492" NOx_perVeh="84.948471" fuel_perVeh="82.687565" electricity_perVeh="0"/>
        </edge>
        <edge id="2">
            <lane id="2_0" sampledSeconds="354551.27" CO_abs="14534029.505664" CO2_abs="641747501.965731" HC_abs="81054.161603" PMx_abs="11026.504189" NOx_abs="257911.161832" fuel_abs="275864.514136" electricity_abs="0"
            CO_normed="1049.598921" CO2_normed="46344.854706" HC_normed="5.853460" PMx_normed="0.796297" NOx_normed="18.625480" fuel_normed="19.922011" electricity_normed="0"
            traveltime="126.74" CO_perVeh="5195.387789" CO2_perVeh="229401.428822" HC_perVeh="28.973920" PMx_perVeh="3.941575" NOx_perVeh="92.193875" fuel_perVeh="98.611547" electricity_perVeh="0"/>
            <lane id="2_1" sampledSeconds="5709294.06" CO_abs="430657966.142766" CO2_abs="7801059227.274986" HC_abs="2142225.889940" PMx_abs="178522.615430" NOx_abs="3490362.427202" fuel_abs="3353541.391531" electricity_abs="0"
            CO_normed="31100.675589" CO2_normed="563366.363454" HC_normed="154.704377" PMx_normed="12.892305" NOx_normed="252.062282" fuel_normed="242.181525" electricity_normed="0"
            traveltime="1088.89" CO_perVeh="82136.285572" CO2_perVeh="1487839.721609" HC_perVeh="408.571282" PMx_perVeh="34.048330" NOx_perVeh="665.691634" fuel_perVeh="639.596745" electricity_perVeh="0"/>
            <lane id="2_2" sampledSeconds="5244121.36" CO_abs="371642041.216347" CO2_abs="7607377031.855190" HC_abs="1868559.745061" PMx_abs="165192.011379" NOx_abs="3359445.997631" fuel_abs="3270251.608394" electricity_abs="0"
            CO_normed="26838.743197" CO2_normed="549379.284146" HC_normed="134.941125" PMx_normed="11.929614" NOx_normed="242.607936" fuel_normed="236.166616" electricity_normed="0"
            traveltime="656.20" CO_perVeh="46504.079172" CO2_perVeh="951921.538861" HC_perVeh="233.815448" PMx_perVeh="20.670703" NOx_perVeh="420.372093" fuel_perVeh="409.211076" electricity_perVeh="0"/>
        </edge>
        <edge id="3">
            <lane id="3_0" sampledSeconds="548983.55" CO_abs="38297023.969570" CO2_abs="827061822.812735" HC_abs="193613.432384" PMx_abs="17967.660364" NOx_abs="365555.222613" fuel_abs="355534.663140" electricity_abs="0"
            CO_normed="27573.857258" CO2_normed="595484.512425" HC_normed="139.401671" PMx_normed="12.936715" NOx_normed="263.199760" fuel_normed="255.984957" electricity_normed="0"
            traveltime="66.08" CO_perVeh="4610.042847" CO2_perVeh="99558.400238" HC_perVeh="23.306412" PMx_perVeh="2.162875" NOx_perVeh="44.004078" fuel_perVeh="42.797843" electricity_perVeh="0"/>
            <lane id="3_1" sampledSeconds="548659.45" CO_abs="38241617.024034" CO2_abs="825590310.709429" HC_abs="193326.054617" PMx_abs="17933.386644" NOx_abs="364892.449569" fuel_abs="354902.108428" electricity_abs="0"
            CO_normed="27533.964257" CO2_normed="594425.023711" HC_normed="139.194759" PMx_normed="12.912038" NOx_normed="262.722564" fuel_normed="255.529518" electricity_normed="0"
            traveltime="66.03" CO_perVeh="4602.327102" CO2_perVeh="99358.681934" HC_perVeh="23.266530" PMx_perVeh="2.158259" NOx_perVeh="43.914315" fuel_perVeh="42.711991" electricity_perVeh="0"/>
        </edge>
        <edge id="4">
            <lane id="4_0" sampledSeconds="95412.00" CO_abs="8009682.248602" CO2_abs="431176103.790338" HC_abs="46670.033480" PMx_abs="8267.788412" NOx_abs="181456.114472" fuel_abs="185344.247301" electricity_abs="0"
            CO_normed="5766.971219" CO2_normed="310446.794729" HC_normed="33.602424" PMx_normed="5.952808" NOx_normed="130.648402" fuel_normed="133.447858" electricity_normed="0"
            traveltime="10.00" CO_perVeh="839.855612" CO2_perVeh="45210.990801" HC_perVeh="4.893589" PMx_perVeh="0.866919" NOx_perVeh="19.026589" fuel_perVeh="19.434280" electricity_perVeh="0"/>
            <lane id="4_1" sampledSeconds="73826.20" CO_abs="6675511.899414" CO2_abs="337872884.926576" HC_abs="38388.516347" PMx_abs="6556.374649" NOx_abs="142925.655111" fuel_abs="145237.365106" electricity_abs="0"
            CO_normed="4806.368568" CO2_normed="243268.477147" HC_normed="27.639732" PMx_normed="4.720590" NOx_normed="102.906472" fuel_normed="104.570903" electricity_normed="0"
            traveltime="10.62" CO_perVeh="960.131841" CO2_perVeh="48595.900928" HC_perVeh="5.521380" PMx_perVeh="0.942996" NOx_perVeh="20.556846" fuel_perVeh="20.889337" electricity_perVeh="0"/>
        </edge>
    </interval>
</meandata>
