<?xml version="1.0" encoding="UTF-8"?>

<!-- generated on Fri Apr 10 20:13:17 2020 by SUMO Version 0.32.0
<?xml version="1.0" encoding="UTF-8"?>

<configuration xmlns:xsi="http://www.w3.org/2001/XMLSchema-instance" xsi:noNamespaceSchemaLocation="http://sumo.dlr.de/xsd/sumoConfiguration.xsd">

    <input>
        <net-file value="base.net.xml"/>
        <route-files value="base.rou.xml"/>
        <additional-files value="additional.xml"/>
    </input>

    <time>
        <begin value="0"/>
        <end value="50000"/>
    </time>

    <random_number>
        <seed value="49502"/>
    </random_number>

</configuration>
-->

<meandata xmlns:xsi="http://www.w3.org/2001/XMLSchema-instance" xsi:noNamespaceSchemaLocation="http://sumo.dlr.de/xsd/meandata_file.xsd">
    <interval begin="0.00" end="50000.00" id="mid">
        <edge id="1">
            <lane id="1_0" sampledSeconds="1055154.04" CO_abs="77540108.415646" CO2_abs="1602116917.573441" HC_abs="390309.041348" PMx_abs="35143.368380" NOx_abs="708865.915728" fuel_abs="688715.346042" electricity_abs="0"
            CO_normed="27914.439030" CO2_normed="576762.090326" HC_normed="140.511255" PMx_normed="12.651613" NOx_normed="255.191730" fuel_normed="247.937525" electricity_normed="0"
            traveltime="131.65" CO_perVeh="9674.241817" CO2_perVeh="199887.088060" HC_perVeh="48.696657" PMx_perVeh="4.384640" NOx_perVeh="88.441201" fuel_perVeh="85.927128" electricity_perVeh="0"/>
            <lane id="1_1" sampledSeconds="1046293.30" CO_abs="75480522.744538" CO2_abs="1552228823.444415" HC_abs="379684.633882" PMx_abs="33713.984162" NOx_abs="685376.063550" fuel_abs="667270.273081" electricity_abs="0"
            CO_normed="27172.988188" CO2_normed="558802.376440" HC_normed="136.686468" PMx_normed="12.137034" NOx_normed="246.735383" fuel_normed="240.217298" electricity_normed="0"
            traveltime="129.06" CO_perVeh="9310.661951" CO2_perVeh="191470.293538" HC_perVeh="46.834801" PMx_perVeh="4.158682" NOx_perVeh="84.542404" fuel_perVeh="82.309021" electricity_perVeh="0"/>
        </edge>
        <edge id="2">
            <lane id="2_0" sampledSeconds="467582.84" CO_abs="21877774.207361" CO2_abs="805490229.311077" HC_abs="118298.494653" PMx_abs="14489.658578" NOx_abs="328765.870252" fuel_abs="346253.742251" electricity_abs="0"
            CO_normed="1579.939562" CO2_normed="58169.805928" HC_normed="8.543121" PMx_normed="1.046395" NOx_normed="23.742370" fuel_normed="25.005285" electricity_normed="0"
            traveltime="150.61" CO_perVeh="7046.869136" CO2_perVeh="259449.804282" HC_perVeh="38.104151" PMx_perVeh="4.667144" NOx_perVeh="105.896059" fuel_perVeh="111.528933" electricity_perVeh="0"/>
            <lane id="2_1" sampledSeconds="5755138.29" CO_abs="436906907.586603" CO2_abs="7827208004.014923" HC_abs="2171352.986383" PMx_abs="180106.631888" NOx_abs="3506971.361180" fuel_abs="3364785.059607" electricity_abs="0"
            CO_normed="31551.953206" CO2_normed="565254.740511" HC_normed="156.807839" PMx_normed="13.006698" NOx_normed="253.261723" fuel_normed="242.993505" electricity_normed="0"
            traveltime="1162.64" CO_perVeh="88263.114303" CO2_perVeh="1581237.885542" HC_perVeh="438.652659" PMx_perVeh="36.384804" NOx_perVeh="708.471779" fuel_perVeh="679.747569" electricity_perVeh="0"/>
            <lane id="2_2" sampledSeconds="5235010.37" CO_abs="370929995.399403" CO2_abs="7606334732.670761" HC_abs="1865295.442702" PMx_abs="165087.976875" NOx_abs="3358560.500210" fuel_abs="3269803.093862" electricity_abs="0"
            CO_normed="26787.321634" CO2_normed="549304.012791" HC_normed="134.705388" PMx_normed="11.922101" NOx_normed="242.543988" fuel_normed="236.134225" electricity_normed="0"
            traveltime="652.78" CO_perVeh="46252.858614" CO2_perVeh="948466.636090" HC_perVeh="232.591722" PMx_perVeh="20.585531" NOx_perVeh="418.793373" fuel_perVeh="407.725830" electricity_perVeh="0"/>
        </edge>
        <edge id="3">
            <lane id="3_0" sampledSeconds="548718.61" CO_abs="38262690.110247" CO2_abs="826188823.887100" HC_abs="193435.925643" PMx_abs="17945.331808" NOx_abs="365150.087876" fuel_abs="355159.391278" electricity_abs="0"
            CO_normed="27549.136879" CO2_normed="594855.953199" HC_normed="139.273866" PMx_normed="12.920639" NOx_normed="262.908063" fuel_normed="255.714762" electricity_normed="0"
            traveltime="65.97" CO_perVeh="4599.836514" CO2_perVeh="99322.172817" HC_perVeh="23.254341" PMx_perVeh="2.157339" NOx_perVeh="43.897350" fuel_perVeh="42.696296" electricity_perVeh="0"/>
            <lane id="3_1" sampledSeconds="548275.16" CO_abs="38188252.872301" CO2_abs="825901984.181209" HC_abs="193090.650396" PMx_abs="17932.263154" NOx_abs="364992.181232" fuel_abs="355036.042307" electricity_abs="0"
            CO_normed="27495.542068" CO2_normed="594649.428610" HC_normed="139.025268" PMx_normed="12.911229" NOx_normed="262.794370" fuel_normed="255.625950" electricity_normed="0"
            traveltime="65.74" CO_perVeh="4578.982957" CO2_perVeh="99030.220694" HC_perVeh="23.152638" PMx_perVeh="2.150178" NOx_perVeh="43.764583" fuel_perVeh="42.570787" electricity_perVeh="0"/>
        </edge>
        <edge id="4">
            <lane id="4_0" sampledSeconds="95410.83" CO_abs="8009462.566970" CO2_abs="430904794.369887" HC_abs="46663.608046" PMx_abs="8267.418585" NOx_abs="181380.550309" fuel_abs="185227.618965" electricity_abs="0"
            CO_normed="5766.813048" CO2_normed="310251.451946" HC_normed="33.597798" PMx_normed="5.952541" NOx_normed="130.593996" fuel_normed="133.363886" electricity_normed="0"
            traveltime="10.00" CO_perVeh="839.581488" CO2_perVeh="45169.034183" HC_perVeh="4.891452" PMx_perVeh="0.866621" NOx_perVeh="19.012980" fuel_perVeh="19.416244" electricity_perVeh="0"/>
            <lane id="4_1" sampledSeconds="74223.59" CO_abs="6711983.638194" CO2_abs="339835036.420612" HC_abs="38600.990888" PMx_abs="6593.371868" NOx_abs="143746.070340" fuel_abs="146080.811612" electricity_abs="0"
            CO_normed="4832.628219" CO2_normed="244681.226223" HC_normed="27.792713" PMx_normed="4.747228" NOx_normed="103.497171" fuel_normed="105.178184" electricity_normed="0"
            traveltime="10.62" CO_perVeh="960.120493" CO2_perVeh="48611.945483" HC_perVeh="5.521706" PMx_perVeh="0.943154" NOx_perVeh="20.562259" fuel_perVeh="20.896234" electricity_perVeh="0"/>
        </edge>
    </interval>
</meandata>
