<?xml version="1.0" encoding="UTF-8"?>

<!-- generated on Fri Apr 10 20:01:20 2020 by SUMO Version 0.32.0
<?xml version="1.0" encoding="UTF-8"?>

<configuration xmlns:xsi="http://www.w3.org/2001/XMLSchema-instance" xsi:noNamespaceSchemaLocation="http://sumo.dlr.de/xsd/sumoConfiguration.xsd">

    <input>
        <net-file value="base.net.xml"/>
        <route-files value="base.rou.xml"/>
        <additional-files value="additional.xml"/>
    </input>

    <time>
        <begin value="0"/>
        <end value="50000"/>
    </time>

    <random_number>
        <seed value="11111"/>
    </random_number>

</configuration>
-->

<meandata xmlns:xsi="http://www.w3.org/2001/XMLSchema-instance" xsi:noNamespaceSchemaLocation="http://sumo.dlr.de/xsd/meandata_file.xsd">
    <interval begin="0.00" end="50000.00" id="mid">
        <edge id="1">
            <lane id="1_0" sampledSeconds="1053622.87" CO_abs="76896017.342589" CO2_abs="1577581220.824863" HC_abs="386749.930564" PMx_abs="34434.405685" NOx_abs="697346.775394" fuel_abs="678168.661724" electricity_abs="0"
            CO_normed="27682.566243" CO2_normed="567929.239497" HC_normed="139.229975" PMx_normed="12.396386" NOx_normed="251.044839" fuel_normed="244.140718" electricity_normed="0"
            traveltime="131.13" CO_perVeh="9569.836996" CO2_perVeh="196332.601527" HC_perVeh="48.131671" PMx_perVeh="4.285419" NOx_perVeh="86.785964" fuel_perVeh="84.399216" electricity_perVeh="0"/>
            <lane id="1_1" sampledSeconds="1049631.59" CO_abs="75694815.357736" CO2_abs="1553537356.114635" HC_abs="380690.496764" PMx_abs="33766.371854" NOx_abs="686130.140764" fuel_abs="667832.873620" electricity_abs="0"
            CO_normed="27250.133529" CO2_normed="559273.448201" HC_normed="137.048579" PMx_normed="12.155894" NOx_normed="247.006851" fuel_normed="240.419835" electricity_normed="0"
            traveltime="130.23" CO_perVeh="9391.733953" CO2_perVeh="192753.089705" HC_perVeh="47.233669" PMx_perVeh="4.189518" NOx_perVeh="85.130688" fuel_perVeh="82.860479" electricity_perVeh="0"/>
        </edge>
        <edge id="2">
            <lane id="2_0" sampledSeconds="119590.97" CO_abs="3750358.004559" CO2_abs="241684771.418008" HC_abs="22672.916357" PMx_abs="3844.178038" NOx_abs="94734.963486" fuel_abs="103890.758129" electricity_abs="0"
            CO_normed="270.838291" CO2_normed="17453.664536" HC_normed="1.637362" PMx_normed="0.277614" NOx_normed="6.841442" fuel_normed="7.502643" electricity_normed="0"
            traveltime="96.18" CO_perVeh="3016.286165" CO2_perVeh="194378.891709" HC_perVeh="18.235060" PMx_perVeh="3.091742" NOx_perVeh="76.192129" fuel_perVeh="83.555825" electricity_perVeh="0"/>
            <lane id="2_1" sampledSeconds="5454093.84" CO_abs="397409726.063646" CO2_abs="7675446248.775912" HC_abs="1987621.136644" PMx_abs="170555.015547" NOx_abs="3408759.742108" fuel_abs="3299527.012256" electricity_abs="0"
            CO_normed="28699.599074" CO2_normed="554295.014957" HC_normed="143.539340" PMx_normed="12.316912" NOx_normed="246.169209" fuel_normed="238.280787" electricity_normed="0"
            traveltime="803.16" CO_perVeh="58521.673217" CO2_perVeh="1130269.159772" HC_perVeh="292.692672" PMx_perVeh="25.115553" NOx_perVeh="501.966385" fuel_perVeh="485.881016" electricity_perVeh="0"/>
            <lane id="2_2" sampledSeconds="5248317.48" CO_abs="372024630.073809" CO2_abs="7622040715.793251" HC_abs="1870642.642270" PMx_abs="165467.929586" NOx_abs="3365709.144198" fuel_abs="3276554.990965" electricity_abs="0"
            CO_normed="26866.372483" CO2_normed="550438.246276" HC_normed="135.091545" PMx_normed="11.949540" NOx_normed="243.060239" fuel_normed="236.621825" electricity_normed="0"
            traveltime="654.43" CO_perVeh="46388.673354" CO2_perVeh="950411.151498" HC_perVeh="233.255068" PMx_perVeh="20.632606" NOx_perVeh="419.678617" fuel_perVeh="408.561764" electricity_perVeh="0"/>
        </edge>
        <edge id="3">
            <lane id="3_0" sampledSeconds="548711.58" CO_abs="38264431.086077" CO2_abs="826094533.919938" HC_abs="193441.225088" PMx_abs="17942.053651" NOx_abs="365100.694877" fuel_abs="355118.865291" electricity_abs="0"
            CO_normed="27550.390382" CO2_normed="594788.064422" HC_normed="139.277682" PMx_normed="12.918279" NOx_normed="262.872500" fuel_normed="255.685583" electricity_normed="0"
            traveltime="65.96" CO_perVeh="4599.884948" CO2_perVeh="99307.364687" HC_perVeh="23.254165" PMx_perVeh="2.156869" NOx_perVeh="43.889877" fuel_perVeh="42.689931" electricity_perVeh="0"/>
            <lane id="3_1" sampledSeconds="548333.25" CO_abs="38220169.393217" CO2_abs="826204026.537006" HC_abs="193243.230048" PMx_abs="17942.498308" NOx_abs="365144.193904" fuel_abs="355165.893570" electricity_abs="0"
            CO_normed="27518.521963" CO2_normed="594866.899107" HC_normed="139.135126" PMx_normed="12.918599" NOx_normed="262.903820" fuel_normed="255.719443" electricity_normed="0"
            traveltime="65.83" CO_perVeh="4588.792920" CO2_perVeh="99195.771431" HC_perVeh="23.201184" PMx_perVeh="2.154214" NOx_perVeh="43.839970" fuel_perVeh="42.641955" electricity_perVeh="0"/>
        </edge>
        <edge id="4">
            <lane id="4_0" sampledSeconds="91298.05" CO_abs="7749417.207700" CO2_abs="413210753.251014" HC_abs="45061.051614" PMx_abs="7941.131018" NOx_abs="174054.293370" fuel_abs="177621.739264" electricity_abs="0"
            CO_normed="5579.580390" CO2_normed="297511.742341" HC_normed="32.443957" PMx_normed="5.717614" NOx_normed="125.319091" fuel_normed="127.887652" electricity_normed="0"
            traveltime="10.08" CO_perVeh="855.744630" CO2_perVeh="45629.609769" HC_perVeh="4.975955" PMx_perVeh="0.876915" NOx_perVeh="19.220288" fuel_perVeh="19.614230" electricity_perVeh="0"/>
            <lane id="4_1" sampledSeconds="78069.37" CO_abs="6950259.693907" CO2_abs="357165233.957729" HC_abs="40095.655921" PMx_abs="6909.485582" NOx_abs="150886.857144" fuel_abs="153530.283676" electricity_abs="0"
            CO_normed="5004.186980" CO2_normed="257158.968450" HC_normed="28.868872" PMx_normed="4.974830" NOx_normed="108.638537" fuel_normed="110.541804" electricity_normed="0"
            traveltime="10.46" CO_perVeh="931.232975" CO2_perVeh="47854.908762" HC_perVeh="5.372230" PMx_perVeh="0.925770" NOx_perVeh="20.216628" fuel_perVeh="20.570809" electricity_perVeh="0"/>
        </edge>
    </interval>
</meandata>
