<?xml version="1.0" encoding="UTF-8"?>

<!-- generated on Wed Apr  8 21:41:52 2020 by SUMO Version 0.32.0
<?xml version="1.0" encoding="UTF-8"?>

<configuration xmlns:xsi="http://www.w3.org/2001/XMLSchema-instance" xsi:noNamespaceSchemaLocation="http://sumo.dlr.de/xsd/sumoConfiguration.xsd">

    <input>
        <net-file value="base.net.xml"/>
        <route-files value="base.rou.xml"/>
        <additional-files value="additional.xml"/>
    </input>

    <time>
        <begin value="0"/>
        <end value="50000"/>
    </time>

</configuration>
-->

<meandata xmlns:xsi="http://www.w3.org/2001/XMLSchema-instance" xsi:noNamespaceSchemaLocation="http://sumo.dlr.de/xsd/meandata_file.xsd">
    <interval begin="0.00" end="50000.00" id="mid">
        <edge id="1">
            <lane id="1_0" sampledSeconds="1049065.54" CO_abs="76144513.650489" CO2_abs="1590040041.369641" HC_abs="383654.111892" PMx_abs="34695.720357" NOx_abs="702925.478475" fuel_abs="683523.282951" electricity_abs="0"
            CO_normed="27412.024914" CO2_normed="572414.414893" HC_normed="138.115480" PMx_normed="12.490459" NOx_normed="253.053172" fuel_normed="246.068382" electricity_normed="0"
            traveltime="130.09" CO_perVeh="9442.502413" CO2_perVeh="197177.133431" HC_perVeh="47.576046" PMx_perVeh="4.302535" NOx_perVeh="87.168139" fuel_perVeh="84.762118" electricity_perVeh="0"/>
            <lane id="1_1" sampledSeconds="1045158.21" CO_abs="75411998.052048" CO2_abs="1550623747.600782" HC_abs="379336.610177" PMx_abs="33684.820813" NOx_abs="684662.899261" fuel_abs="666580.288698" electricity_abs="0"
            CO_normed="27148.319299" CO2_normed="558224.549136" HC_normed="136.561180" PMx_normed="12.126535" NOx_normed="246.478644" fuel_normed="239.968904" electricity_normed="0"
            traveltime="129.02" CO_perVeh="9309.050686" CO2_perVeh="191412.977164" HC_perVeh="46.826285" PMx_perVeh="4.158141" NOx_perVeh="84.516546" fuel_perVeh="82.284383" electricity_perVeh="0"/>
        </edge>
        <edge id="2">
            <lane id="2_0" sampledSeconds="5887682.27" CO_abs="454622925.952521" CO2_abs="7897391016.583705" HC_abs="2253859.570137" PMx_abs="184642.830176" NOx_abs="3552992.585129" fuel_abs="3394963.347861" electricity_abs="0"
            CO_normed="32831.344703" CO2_normed="570323.122562" HC_normed="162.766188" PMx_normed="13.334287" NOx_normed="256.585222" fuel_normed="245.172880" electricity_normed="0"
            traveltime="1441.04" CO_perVeh="111271.163849" CO2_perVeh="1932924.715458" HC_perVeh="551.643050" PMx_perVeh="45.192227" NOx_perVeh="869.612150" fuel_perVeh="830.933729" electricity_perVeh="0"/>
            <lane id="2_1" sampledSeconds="5879842.01" CO_abs="454343813.346079" CO2_abs="7894791656.434230" HC_abs="2252530.619073" PMx_abs="184576.520144" NOx_abs="3551844.837123" fuel_abs="3393845.815854" electricity_abs="0"
            CO_normed="32811.188125" CO2_normed="570135.405480" HC_normed="162.670215" PMx_normed="13.329498" NOx_normed="256.502335" fuel_normed="245.092175" electricity_normed="0"
            traveltime="1443.96" CO_perVeh="111576.707009" CO2_perVeh="1938784.747738" HC_perVeh="553.171280" PMx_perVeh="45.327877" NOx_perVeh="872.253873" fuel_perVeh="833.452837" electricity_perVeh="0"/>
            <lane id="2_2" sampledSeconds="5227898.92" CO_abs="370939251.747317" CO2_abs="7585631874.165386" HC_abs="1864856.779795" PMx_abs="164787.921609" NOx_abs="3350415.798322" fuel_abs="3260904.011777" electricity_abs="0"
            CO_normed="26787.990096" CO2_normed="547808.921705" HC_normed="134.673709" PMx_normed="11.900432" NOx_normed="241.955805" fuel_normed="235.491564" electricity_normed="0"
            traveltime="660.21" CO_perVeh="46844.189608" CO2_perVeh="957954.102009" HC_perVeh="235.504073" PMx_perVeh="20.810299" NOx_perVeh="423.108399" fuel_perVeh="411.804373" electricity_perVeh="0"/>
        </edge>
        <edge id="3">
            <lane id="3_0" sampledSeconds="549206.68" CO_abs="38324162.544331" CO2_abs="826367475.173611" HC_abs="193719.698863" PMx_abs="17955.208704" NOx_abs="365256.009208" fuel_abs="355236.226905" electricity_abs="0"
            CO_normed="27593.397032" CO2_normed="594984.582125" HC_normed="139.478183" PMx_normed="12.927750" NOx_normed="262.984327" fuel_normed="255.770083" electricity_normed="0"
            traveltime="66.21" CO_perVeh="4619.957666" CO2_perVeh="99618.165109" HC_perVeh="23.352808" PMx_perVeh="2.164491" NOx_perVeh="44.031420" fuel_perVeh="42.823541" electricity_perVeh="0"/>
            <lane id="3_1" sampledSeconds="548633.12" CO_abs="38218860.195364" CO2_abs="825426709.281121" HC_abs="193218.594654" PMx_abs="17927.557751" NOx_abs="364809.335899" fuel_abs="354831.770054" electricity_abs="0"
            CO_normed="27517.579341" CO2_normed="594307.230682" HC_normed="139.117388" PMx_normed="12.907842" NOx_normed="262.662722" fuel_normed="255.478874" electricity_normed="0"
            traveltime="66.03" CO_perVeh="4599.720687" CO2_perVeh="99341.850873" HC_perVeh="23.254267" PMx_perVeh="2.157620" NOx_perVeh="43.905575" fuel_perVeh="42.704754" electricity_perVeh="0"/>
        </edge>
        <edge id="4">
            <lane id="4_0" sampledSeconds="95892.29" CO_abs="8038942.823695" CO2_abs="433007505.184804" HC_abs="46847.154014" PMx_abs="8302.977492" NOx_abs="182224.427468" fuel_abs="186131.484964" electricity_abs="0"
            CO_normed="5788.038833" CO2_normed="311765.403733" HC_normed="33.729951" PMx_normed="5.978144" NOx_normed="131.201588" fuel_normed="134.014669" electricity_normed="0"
            traveltime="9.99" CO_perVeh="837.885287" CO2_perVeh="45131.633076" HC_perVeh="4.882799" PMx_perVeh="0.865405" NOx_perVeh="18.992941" fuel_perVeh="19.400167" electricity_perVeh="0"/>
            <lane id="4_1" sampledSeconds="73271.52" CO_abs="6645406.168340" CO2_abs="335734478.411344" HC_abs="38200.567264" PMx_abs="6515.651614" NOx_abs="142031.192943" fuel_abs="144318.162622" electricity_abs="0"
            CO_normed="4784.692441" CO2_normed="241728.824456" HC_normed="27.504408" PMx_normed="4.691269" NOx_normed="102.262459" fuel_normed="103.909077" electricity_normed="0"
            traveltime="10.65" CO_perVeh="965.484194" CO2_perVeh="48777.504930" HC_perVeh="5.550006" PMx_perVeh="0.946633" NOx_perVeh="20.635138" fuel_perVeh="20.967402" electricity_perVeh="0"/>
        </edge>
    </interval>
</meandata>
