<?xml version="1.0" encoding="UTF-8"?>

<!-- generated on Wed Apr  8 21:25:58 2020 by SUMO Version 0.32.0
<?xml version="1.0" encoding="UTF-8"?>

<configuration xmlns:xsi="http://www.w3.org/2001/XMLSchema-instance" xsi:noNamespaceSchemaLocation="http://sumo.dlr.de/xsd/sumoConfiguration.xsd">

    <input>
        <net-file value="base.net.xml"/>
        <route-files value="base.rou.xml"/>
        <additional-files value="additional.xml"/>
    </input>

    <time>
        <begin value="0"/>
        <end value="50000"/>
    </time>

</configuration>
-->

<meandata xmlns:xsi="http://www.w3.org/2001/XMLSchema-instance" xsi:noNamespaceSchemaLocation="http://sumo.dlr.de/xsd/meandata_file.xsd">
    <interval begin="0.00" end="50000.00" id="mid">
        <edge id="1">
            <lane id="1_0" sampledSeconds="1052320.99" CO_abs="76567103.566373" CO2_abs="1594602165.265977" HC_abs="385700.450940" PMx_abs="34883.705446" NOx_abs="705162.509974" fuel_abs="685484.515927" electricity_abs="0"
            CO_normed="27564.157284" CO2_normed="574056.779496" HC_normed="138.852162" PMx_normed="12.558134" NOx_normed="253.858504" fuel_normed="246.774426" electricity_normed="0"
            traveltime="130.26" CO_perVeh="9477.539052" CO2_perVeh="197381.167503" HC_perVeh="47.742319" PMx_perVeh="4.317934" NOx_perVeh="87.285595" fuel_perVeh="84.849837" electricity_perVeh="0"/>
            <lane id="1_1" sampledSeconds="1044740.12" CO_abs="75315027.886503" CO2_abs="1549360684.336002" HC_abs="378865.677131" PMx_abs="33651.903007" NOx_abs="684081.273573" fuel_abs="666037.301338" electricity_abs="0"
            CO_normed="27113.410039" CO2_normed="557769.846361" HC_normed="136.391644" PMx_normed="12.114685" NOx_normed="246.269258" fuel_normed="239.773428" electricity_normed="0"
            traveltime="128.77" CO_perVeh="9283.178951" CO2_perVeh="190971.083670" HC_perVeh="46.698222" PMx_perVeh="4.147866" NOx_perVeh="84.318483" fuel_perVeh="82.094419" electricity_perVeh="0"/>
        </edge>
        <edge id="2">
            <lane id="2_0" sampledSeconds="5818923.93" CO_abs="449710742.075075" CO2_abs="7823904099.206219" HC_abs="2229793.473953" PMx_abs="182882.061962" NOx_abs="3519815.742109" fuel_abs="3363371.950925" electricity_abs="0"
            CO_normed="32476.603239" CO2_normed="565016.143574" HC_normed="161.028215" PMx_normed="13.207130" NOx_normed="254.189301" fuel_normed="242.891455" electricity_normed="0"
            traveltime="1437.48" CO_perVeh="111094.676090" CO2_perVeh="1932784.811084" HC_perVeh="550.838929" PMx_perVeh="45.178426" NOx_perVeh="869.520679" fuel_perVeh="830.873454" electricity_perVeh="0"/>
            <lane id="2_1" sampledSeconds="5893698.13" CO_abs="455497899.125888" CO2_abs="7911256307.608584" HC_abs="2258167.192959" PMx_abs="184982.800639" NOx_abs="3559344.655754" fuel_abs="3400923.857311" electricity_abs="0"
            CO_normed="32894.532334" CO2_normed="571324.427430" HC_normed="163.077270" PMx_normed="13.358838" NOx_normed="257.043947" fuel_normed="245.603328" electricity_normed="0"
            traveltime="1444.86" CO_perVeh="111666.927460" CO2_perVeh="1939472.576958" HC_perVeh="553.597706" PMx_perVeh="45.349190" NOx_perVeh="872.585982" fuel_perVeh="833.748560" electricity_perVeh="0"/>
            <lane id="2_2" sampledSeconds="5229015.50" CO_abs="370976385.804599" CO2_abs="7596724164.799945" HC_abs="1865284.539556" PMx_abs="164958.079772" NOx_abs="3354820.818220" fuel_abs="3265672.034338" electricity_abs="0"
            CO_normed="26790.671793" CO2_normed="548609.969775" HC_normed="134.704601" PMx_normed="11.912720" NOx_normed="242.273921" fuel_normed="235.835894" electricity_normed="0"
            traveltime="656.49" CO_perVeh="46575.263517" CO2_perVeh="953751.891984" HC_perVeh="234.182342" PMx_perVeh="20.710122" NOx_perVeh="421.190323" fuel_perVeh="409.997890" electricity_perVeh="0"/>
        </edge>
        <edge id="3">
            <lane id="3_0" sampledSeconds="549078.37" CO_abs="38313465.312179" CO2_abs="826612901.754262" HC_abs="193677.375285" PMx_abs="17960.786360" NOx_abs="365368.678230" fuel_abs="355341.710564" electricity_abs="0"
            CO_normed="27585.695025" CO2_normed="595161.289263" HC_normed="139.447710" PMx_normed="12.931766" NOx_normed="263.065448" fuel_normed="255.846032" electricity_normed="0"
            traveltime="66.16" CO_perVeh="4616.749809" CO2_perVeh="99606.363590" HC_perVeh="23.338009" PMx_perVeh="2.164264" NOx_perVeh="44.026709" fuel_perVeh="42.818465" electricity_perVeh="0"/>
            <lane id="3_1" sampledSeconds="548444.86" CO_abs="38228454.020448" CO2_abs="826112422.949416" HC_abs="193278.579998" PMx_abs="17941.054938" NOx_abs="365106.667903" fuel_abs="355126.525264" electricity_abs="0"
            CO_normed="27524.486895" CO2_normed="594800.944524" HC_normed="139.160578" PMx_normed="12.917560" NOx_normed="262.876801" fuel_normed="255.691098" electricity_normed="0"
            traveltime="65.90" CO_perVeh="4593.749018" CO2_perVeh="99270.379333" HC_perVeh="23.225456" PMx_perVeh="2.155899" NOx_perVeh="43.873299" fuel_perVeh="42.674028" electricity_perVeh="0"/>
        </edge>
        <edge id="4">
            <lane id="4_0" sampledSeconds="96241.83" CO_abs="8055512.770778" CO2_abs="433977974.080867" HC_abs="46945.655853" PMx_abs="8323.356839" NOx_abs="182649.065436" fuel_abs="186548.643727" electricity_abs="0"
            CO_normed="5799.969195" CO2_normed="312464.141338" HC_normed="33.800872" PMx_normed="5.992817" NOx_normed="131.507327" fuel_normed="134.315023" electricity_normed="0"
            traveltime="9.99" CO_perVeh="836.048421" CO2_perVeh="45040.782663" HC_perVeh="4.872296" PMx_perVeh="0.863847" NOx_perVeh="18.956393" fuel_perVeh="19.361114" electricity_perVeh="0"/>
            <lane id="4_1" sampledSeconds="73107.37" CO_abs="6636480.350023" CO2_abs="334608617.299998" HC_abs="38133.959097" PMx_abs="6496.491974" NOx_abs="141583.757955" fuel_abs="143834.208441" electricity_abs="0"
            CO_normed="4778.265852" CO2_normed="240918.204456" HC_normed="27.456451" PMx_normed="4.677474" NOx_normed="101.940306" fuel_normed="103.560630" electricity_normed="0"
            traveltime="10.66" CO_perVeh="967.927593" CO2_perVeh="48802.512246" HC_perVeh="5.561820" PMx_perVeh="0.947510" NOx_perVeh="20.649926" fuel_perVeh="20.978153" electricity_perVeh="0"/>
        </edge>
    </interval>
</meandata>
