<?xml version="1.0" encoding="UTF-8"?>

<!-- generated on Tue May 21 17:02:25 2019 by SUMO Version 0.32.0
<?xml version="1.0" encoding="UTF-8"?>

<configuration xmlns:xsi="http://www.w3.org/2001/XMLSchema-instance" xsi:noNamespaceSchemaLocation="http://sumo.dlr.de/xsd/sumoConfiguration.xsd">

    <input>
        <net-file value="base.net.xml"/>
        <route-files value="base.rou.xml"/>
        <additional-files value="additional_5000.xml"/>
    </input>

    <time>
        <begin value="0"/>
        <end value="5000"/>
    </time>

</configuration>
-->

<meandata xmlns:xsi="http://www.w3.org/2001/XMLSchema-instance" xsi:noNamespaceSchemaLocation="http://sumo.dlr.de/xsd/meandata_file.xsd">
    <interval begin="0.00" end="5000.00" id="myLanes">
        <edge id="1">
            <lane id="1_0" sampledSeconds="87906.94" traveltime="186.54" overlapTraveltime="191.15" density="87.91" occupancy="43.34" waitingTime="3086.00" speed="1.07" departed="479" arrived="0" entered="0" left="469" laneChangedFrom="15" laneChangedTo="29"/>
            <lane id="1_1" sampledSeconds="88137.85" traveltime="191.92" overlapTraveltime="196.64" density="88.14" occupancy="43.48" waitingTime="3425.00" speed="1.04" departed="476" arrived="0" entered="0" left="439" laneChangedFrom="29" laneChangedTo="15"/>
        </edge>
        <edge id="2">
            <lane id="2_0" sampledSeconds="108457.45" traveltime="233.83" overlapTraveltime="240.16" density="108.46" occupancy="53.24" waitingTime="1688.00" speed="0.85" departed="0" arrived="0" entered="468" left="430" laneChangedFrom="37" laneChangedTo="22"/>
            <lane id="2_1" sampledSeconds="108374.58" traveltime="244.10" overlapTraveltime="250.46" density="108.37" occupancy="53.21" waitingTime="1550.00" speed="0.82" departed="0" arrived="0" entered="440" left="431" laneChangedFrom="22" laneChangedTo="37"/>
        </edge>
        <edge id="3">
            <lane id="3_0" sampledSeconds="21859.52" traveltime="44.56" overlapTraveltime="45.28" density="21.86" occupancy="10.10" waitingTime="0.00" speed="4.53" departed="0" arrived="563" entered="429" left="0" laneChangedFrom="3" laneChangedTo="141"/>
            <lane id="3_1" sampledSeconds="18150.88" traveltime="48.68" overlapTraveltime="49.56" density="18.15" occupancy="8.27" waitingTime="0.00" speed="4.14" departed="0" arrived="291" entered="431" left="0" laneChangedFrom="141" laneChangedTo="3"/>
        </edge>
    </interval>
</meandata>
