<?xml version="1.0" encoding="UTF-8"?>

<!-- generated on Thu Apr  9 01:36:23 2020 by SUMO Version 0.32.0
<?xml version="1.0" encoding="UTF-8"?>

<configuration xmlns:xsi="http://www.w3.org/2001/XMLSchema-instance" xsi:noNamespaceSchemaLocation="http://sumo.dlr.de/xsd/sumoConfiguration.xsd">

    <input>
        <net-file value="base.net.xml"/>
        <route-files value="base.rou.xml"/>
        <additional-files value="additional.xml"/>
    </input>

    <time>
        <begin value="0"/>
        <end value="50000"/>
    </time>

</configuration>
-->

<meandata xmlns:xsi="http://www.w3.org/2001/XMLSchema-instance" xsi:noNamespaceSchemaLocation="http://sumo.dlr.de/xsd/meandata_file.xsd">
    <interval begin="0.00" end="50000.00" id="mid">
        <edge id="1">
            <lane id="1_0" sampledSeconds="1056218.74" CO_abs="77651387.368002" CO2_abs="1601523794.277471" HC_abs="390798.281984" PMx_abs="35134.281433" NOx_abs="708645.217518" fuel_abs="688460.487288" electricity_abs="0"
            CO_normed="27954.499452" CO2_normed="576548.565940" HC_normed="140.687382" PMx_normed="12.648341" NOx_normed="255.112278" fuel_normed="247.845775" electricity_normed="0"
            traveltime="131.92" CO_perVeh="9698.602873" CO2_perVeh="200029.179105" HC_perVeh="48.810427" PMx_perVeh="4.388247" NOx_perVeh="88.509282" fuel_perVeh="85.988224" electricity_perVeh="0"/>
            <lane id="1_1" sampledSeconds="1048118.01" CO_abs="75604137.926883" CO2_abs="1553122081.554683" HC_abs="380268.011358" PMx_abs="33745.478595" NOx_abs="685870.136745" fuel_abs="667654.313743" electricity_abs="0"
            CO_normed="27217.489654" CO2_normed="559123.949360" HC_normed="136.896484" PMx_normed="12.148372" NOx_normed="246.913249" fuel_normed="240.355553" electricity_normed="0"
            traveltime="129.68" CO_perVeh="9353.903301" CO2_perVeh="192155.537566" HC_perVeh="47.047560" PMx_perVeh="4.175062" NOx_perVeh="84.857299" fuel_perVeh="82.603599" electricity_perVeh="0"/>
        </edge>
        <edge id="2">
            <lane id="2_0" sampledSeconds="331945.56" CO_abs="12603128.378673" CO2_abs="612187714.060908" HC_abs="71571.816043" PMx_abs="10286.128291" NOx_abs="244228.778828" fuel_abs="263157.115130" electricity_abs="0"
            CO_normed="910.155710" CO2_normed="44210.145850" HC_normed="5.168677" PMx_normed="0.742830" NOx_normed="17.637384" fuel_normed="19.004325" electricity_normed="0"
            traveltime="118.10" CO_perVeh="4483.856984" CO2_perVeh="217800.063166" HC_perVeh="25.463344" PMx_perVeh="3.659530" NOx_perVeh="86.890087" fuel_perVeh="93.624284" electricity_perVeh="0"/>
            <lane id="2_1" sampledSeconds="5714849.78" CO_abs="431222375.664312" CO2_abs="7807238242.091136" HC_abs="2144947.360799" PMx_abs="178735.251159" NOx_abs="3493524.705982" fuel_abs="3356197.732652" electricity_abs="0"
            CO_normed="31141.435354" CO2_normed="563812.591204" HC_normed="154.900913" PMx_normed="12.907661" NOx_normed="252.290651" fuel_normed="242.373357" electricity_normed="0"
            traveltime="1094.39" CO_perVeh="82578.618553" CO2_perVeh="1495077.679484" HC_perVeh="410.755100" PMx_perVeh="34.227607" NOx_perVeh="669.006203" fuel_perVeh="642.708236" electricity_perVeh="0"/>
            <lane id="2_2" sampledSeconds="5243123.28" CO_abs="371784824.653105" CO2_abs="7618907402.882135" HC_abs="1869479.068898" PMx_abs="165393.973167" NOx_abs="3364319.470802" fuel_abs="3275207.977011" electricity_abs="0"
            CO_normed="26849.054539" CO2_normed="550211.968914" HC_normed="135.007516" PMx_normed="11.944199" NOx_normed="242.959882" fuel_normed="236.524548" electricity_normed="0"
            traveltime="654.32" CO_perVeh="46397.443608" CO2_perVeh="950812.951851" HC_perVeh="233.304438" PMx_perVeh="20.640588" NOx_perVeh="419.855283" fuel_perVeh="408.734481" electricity_perVeh="0"/>
        </edge>
        <edge id="3">
            <lane id="3_0" sampledSeconds="548972.72" CO_abs="38288718.620965" CO2_abs="826524503.639873" HC_abs="193562.757439" PMx_abs="17956.547630" NOx_abs="365318.880745" fuel_abs="355303.695695" electricity_abs="0"
            CO_normed="27567.877407" CO2_normed="595097.642621" HC_normed="139.365185" PMx_normed="12.928714" NOx_normed="263.029594" fuel_normed="255.818661" electricity_normed="0"
            traveltime="66.09" CO_perVeh="4609.347715" CO2_perVeh="99500.295899" HC_perVeh="23.301852" PMx_perVeh="2.161680" NOx_perVeh="43.978535" fuel_perVeh="42.772867" electricity_perVeh="0"/>
            <lane id="3_1" sampledSeconds="548502.47" CO_abs="38252600.311886" CO2_abs="826715200.734226" HC_abs="193402.310743" PMx_abs="17952.422315" NOx_abs="365362.913790" fuel_abs="355385.644745" electricity_abs="0"
            CO_normed="27541.872225" CO2_normed="595234.944529" HC_normed="139.249664" PMx_normed="12.925744" NOx_normed="263.061298" fuel_normed="255.877664" electricity_normed="0"
            traveltime="65.86" CO_perVeh="4592.895855" CO2_perVeh="99261.665550" HC_perVeh="23.221341" PMx_perVeh="2.155503" NOx_perVeh="43.868229" fuel_perVeh="42.670282" electricity_perVeh="0"/>
        </edge>
        <edge id="4">
            <lane id="4_0" sampledSeconds="94162.14" CO_abs="7925318.153551" CO2_abs="425557595.254922" HC_abs="46153.307309" PMx_abs="8162.405155" NOx_abs="179119.643969" fuel_abs="182929.102037" electricity_abs="0"
            CO_normed="5706.229071" CO2_normed="306401.468584" HC_normed="33.230381" PMx_normed="5.876932" NOx_normed="128.966144" fuel_normed="131.708953" electricity_normed="0"
            traveltime="10.03" CO_perVeh="844.097086" CO2_perVeh="45324.606428" HC_perVeh="4.915622" PMx_perVeh="0.869348" NOx_perVeh="19.077388" fuel_perVeh="19.483120" electricity_perVeh="0"/>
            <lane id="4_1" sampledSeconds="75334.64" CO_abs="6781143.178452" CO2_abs="344392414.926587" HC_abs="39023.314062" PMx_abs="6676.443275" NOx_abs="145625.595248" fuel_abs="148039.828969" electricity_abs="0"
            CO_normed="4882.423088" CO2_normed="247962.538747" HC_normed="28.096786" PMx_normed="4.807039" NOx_normed="104.850429" fuel_normed="106.588677" electricity_normed="0"
            traveltime="10.58" CO_perVeh="952.466197" CO2_perVeh="48372.689530" HC_perVeh="5.481139" PMx_perVeh="0.937760" NOx_perVeh="20.454288" fuel_perVeh="20.793387" electricity_perVeh="0"/>
        </edge>
    </interval>
</meandata>
