<?xml version="1.0" encoding="UTF-8"?>

<!-- generated on Fri Apr 10 21:52:40 2020 by SUMO Version 0.32.0
<?xml version="1.0" encoding="UTF-8"?>

<configuration xmlns:xsi="http://www.w3.org/2001/XMLSchema-instance" xsi:noNamespaceSchemaLocation="http://sumo.dlr.de/xsd/sumoConfiguration.xsd">

    <input>
        <net-file value="base.net.xml"/>
        <route-files value="base.rou.xml"/>
        <additional-files value="additional.xml"/>
    </input>

    <time>
        <begin value="0"/>
        <end value="50000"/>
    </time>

    <random_number>
        <seed value="60618"/>
    </random_number>

</configuration>
-->

<meandata xmlns:xsi="http://www.w3.org/2001/XMLSchema-instance" xsi:noNamespaceSchemaLocation="http://sumo.dlr.de/xsd/meandata_file.xsd">
    <interval begin="0.00" end="50000.00" id="mid">
        <edge id="1">
            <lane id="1_0" sampledSeconds="1054839.75" CO_abs="77425105.409766" CO2_abs="1608950463.354207" HC_abs="389967.638620" PMx_abs="35334.521305" NOx_abs="712030.736182" fuel_abs="691652.507901" electricity_abs="0"
            CO_normed="27873.037948" CO2_normed="579222.166808" HC_normed="140.388350" PMx_normed="12.720428" NOx_normed="256.331065" fuel_normed="248.994903" electricity_normed="0"
            traveltime="131.66" CO_perVeh="9663.676551" CO2_perVeh="200818.284752" HC_perVeh="48.673116" PMx_perVeh="4.410215" NOx_perVeh="88.870847" fuel_perVeh="86.327375" electricity_perVeh="0"/>
            <lane id="1_1" sampledSeconds="1045113.55" CO_abs="75405113.307771" CO2_abs="1551783996.454005" HC_abs="379332.411260" PMx_abs="33703.527944" NOx_abs="685162.192027" fuel_abs="667079.007826" electricity_abs="0"
            CO_normed="27145.840791" CO2_normed="558642.238723" HC_normed="136.559668" PMx_normed="12.133270" NOx_normed="246.658389" fuel_normed="240.148443" electricity_normed="0"
            traveltime="128.74" CO_perVeh="9288.951404" CO2_perVeh="191160.061961" HC_perVeh="46.728931" PMx_perVeh="4.151846" NOx_perVeh="84.403272" fuel_perVeh="82.175654" electricity_perVeh="0"/>
        </edge>
        <edge id="2">
            <lane id="2_0" sampledSeconds="1919505.17" CO_abs="134332025.192196" CO2_abs="2745447152.810641" HC_abs="675519.325319" PMx_abs="60114.164934" NOx_abs="1203815.768473" fuel_abs="1180210.707139" electricity_abs="0"
            CO_normed="9701.008840" CO2_normed="198266.995990" HC_normed="48.783743" PMx_normed="4.341244" NOx_normed="86.935542" fuel_normed="85.230864" electricity_normed="0"
            traveltime="489.35" CO_perVeh="34245.668199" CO2_perVeh="699905.120309" HC_perVeh="172.212178" PMx_perVeh="15.325085" NOx_perVeh="306.892383" fuel_perVeh="300.874674" electricity_perVeh="0"/>
            <lane id="2_1" sampledSeconds="5888478.67" CO_abs="454609488.581667" CO2_abs="7913916887.280179" HC_abs="2254165.040870" PMx_abs="184808.367385" NOx_abs="3559349.574489" fuel_abs="3402067.033610" electricity_abs="0"
            CO_normed="32830.374301" CO2_normed="571516.565581" HC_normed="162.788248" PMx_normed="13.346241" NOx_normed="257.044302" fuel_normed="245.685884" electricity_normed="0"
            traveltime="1417.04" CO_perVeh="109399.795049" CO2_perVeh="1904449.658987" HC_perVeh="542.455007" PMx_perVeh="44.473329" NOx_perVeh="856.541985" fuel_perVeh="818.692626" electricity_perVeh="0"/>
            <lane id="2_2" sampledSeconds="5230827.51" CO_abs="371056501.301000" CO2_abs="7605318925.854110" HC_abs="1865846.924328" PMx_abs="165084.843693" NOx_abs="3358233.160333" fuel_abs="3269366.541884" electricity_abs="0"
            CO_normed="26796.457466" CO2_normed="549230.654625" HC_normed="134.745214" PMx_normed="11.921874" NOx_normed="242.520349" fuel_normed="236.102699" electricity_normed="0"
            traveltime="653.73" CO_perVeh="46373.220640" CO2_perVeh="950483.636181" HC_perVeh="233.186404" PMx_perVeh="20.631672" NOx_perVeh="419.699121" fuel_perVeh="408.592911" electricity_perVeh="0"/>
        </edge>
        <edge id="3">
            <lane id="3_0" sampledSeconds="548707.03" CO_abs="38217090.904149" CO2_abs="825452143.301993" HC_abs="193211.327722" PMx_abs="17928.588597" NOx_abs="364822.434504" fuel_abs="354842.700424" electricity_abs="0"
            CO_normed="27516.305451" CO2_normed="594325.543177" HC_normed="139.112156" PMx_normed="12.908584" NOx_normed="262.672153" fuel_normed="255.486744" electricity_normed="0"
            traveltime="65.97" CO_perVeh="4594.945054" CO2_perVeh="99246.362130" HC_perVeh="23.230325" PMx_perVeh="2.155603" NOx_perVeh="43.863596" fuel_perVeh="42.663705" electricity_perVeh="0"/>
            <lane id="3_1" sampledSeconds="548216.08" CO_abs="38197593.114483" CO2_abs="825364760.497840" HC_abs="193119.743402" PMx_abs="17920.752223" NOx_abs="364752.027139" fuel_abs="354805.131752" electricity_abs="0"
            CO_normed="27502.267042" CO2_normed="594262.627558" HC_normed="139.046215" PMx_normed="12.902942" NOx_normed="262.621460" fuel_normed="255.459695" electricity_normed="0"
            traveltime="65.77" CO_perVeh="4582.508640" CO2_perVeh="99017.787189" HC_perVeh="23.168289" PMx_perVeh="2.149926" NOx_perVeh="43.758760" fuel_perVeh="42.565446" electricity_perVeh="0"/>
        </edge>
        <edge id="4">
            <lane id="4_0" sampledSeconds="97104.57" CO_abs="8129414.816087" CO2_abs="438766386.571492" HC_abs="47395.586029" PMx_abs="8409.677341" NOx_abs="184617.533394" fuel_abs="188606.975162" electricity_abs="0"
            CO_normed="5853.178668" CO2_normed="315911.798331" HC_normed="34.124822" PMx_normed="6.054968" NOx_normed="132.924624" fuel_normed="135.797022" electricity_normed="0"
            traveltime="9.98" CO_perVeh="835.668167" CO2_perVeh="45103.258995" HC_perVeh="4.872058" PMx_perVeh="0.864478" NOx_perVeh="18.977872" fuel_perVeh="19.387969" electricity_perVeh="0"/>
            <lane id="4_1" sampledSeconds="72627.48" CO_abs="6597670.283781" CO2_abs="331944926.233568" HC_abs="37892.609928" PMx_abs="6441.426388" NOx_abs="140434.462798" fuel_abs="142689.216456" electricity_abs="0"
            CO_normed="4750.322604" CO2_normed="239000.346888" HC_normed="27.282679" PMx_normed="4.637827" NOx_normed="101.112813" fuel_normed="102.736236" electricity_normed="0"
            traveltime="10.69" CO_perVeh="971.173442" CO2_perVeh="48862.110840" HC_perVeh="5.577771" PMx_perVeh="0.948174" NOx_perVeh="20.671876" fuel_perVeh="21.003774" electricity_perVeh="0"/>
        </edge>
    </interval>
</meandata>
