<?xml version="1.0" encoding="UTF-8"?>

<!-- generated on Fri Apr 10 21:39:51 2020 by SUMO Version 0.32.0
<?xml version="1.0" encoding="UTF-8"?>

<configuration xmlns:xsi="http://www.w3.org/2001/XMLSchema-instance" xsi:noNamespaceSchemaLocation="http://sumo.dlr.de/xsd/sumoConfiguration.xsd">

    <input>
        <net-file value="base.net.xml"/>
        <route-files value="base.rou.xml"/>
        <additional-files value="additional.xml"/>
    </input>

    <time>
        <begin value="0"/>
        <end value="50000"/>
    </time>

    <random_number>
        <seed value="49090"/>
    </random_number>

</configuration>
-->

<meandata xmlns:xsi="http://www.w3.org/2001/XMLSchema-instance" xsi:noNamespaceSchemaLocation="http://sumo.dlr.de/xsd/meandata_file.xsd">
    <interval begin="0.00" end="50000.00" id="mid">
        <edge id="1">
            <lane id="1_0" sampledSeconds="1054588.53" CO_abs="77325084.278277" CO2_abs="1589671421.656419" HC_abs="389009.469673" PMx_abs="34786.029712" NOx_abs="703033.593907" fuel_abs="683365.734512" electricity_abs="0"
            CO_normed="27837.030340" CO2_normed="572281.711796" HC_normed="140.043409" PMx_normed="12.522971" NOx_normed="253.092094" fuel_normed="246.011664" electricity_normed="0"
            traveltime="131.39" CO_perVeh="9633.574320" CO2_perVeh="198049.803985" HC_perVeh="48.464889" PMx_perVeh="4.333830" NOx_perVeh="87.587701" fuel_perVeh="85.137374" electricity_perVeh="0"/>
            <lane id="1_1" sampledSeconds="1047929.99" CO_abs="75509018.993480" CO2_abs="1551221754.738629" HC_abs="379790.401286" PMx_abs="33701.720008" NOx_abs="685012.583556" fuel_abs="666837.405234" electricity_abs="0"
            CO_normed="27183.246838" CO2_normed="558439.831706" HC_normed="136.724544" PMx_normed="12.132619" NOx_normed="246.604530" fuel_normed="240.061466" electricity_normed="0"
            traveltime="129.62" CO_perVeh="9339.745559" CO2_perVeh="191871.337855" HC_perVeh="46.976451" PMx_perVeh="4.168581" NOx_perVeh="84.729524" fuel_perVeh="82.481428" electricity_perVeh="0"/>
        </edge>
        <edge id="2">
            <lane id="2_0" sampledSeconds="221893.87" CO_abs="7896867.045119" CO2_abs="425539738.283356" HC_abs="45815.116918" PMx_abs="6994.071426" NOx_abs="168556.607983" fuel_abs="182923.494615" electricity_abs="0"
            CO_normed="570.285283" CO2_normed="30731.054319" HC_normed="3.308614" PMx_normed="0.505088" NOx_normed="12.172594" fuel_normed="13.210122" electricity_normed="0"
            traveltime="108.19" CO_perVeh="3850.200742" CO2_perVeh="207476.383554" HC_perVeh="22.337643" PMx_perVeh="3.410033" NOx_perVeh="82.181550" fuel_perVeh="89.186277" electricity_perVeh="0"/>
            <lane id="2_1" sampledSeconds="5583163.45" CO_abs="414217473.456568" CO2_abs="7730252520.207622" HC_abs="2065565.560520" PMx_abs="174404.789253" NOx_abs="3446218.292815" fuel_abs="3323095.514143" electricity_abs="0"
            CO_normed="29913.398284" CO2_normed="558252.940276" HC_normed="149.168225" PMx_normed="12.594930" NOx_normed="248.874340" fuel_normed="239.982825" electricity_normed="0"
            traveltime="931.70" CO_perVeh="69123.293864" CO2_perVeh="1289999.941672" HC_perVeh="344.695008" PMx_perVeh="29.104116" NOx_perVeh="575.093942" fuel_perVeh="554.547605" electricity_perVeh="0"/>
            <lane id="2_2" sampledSeconds="5241495.46" CO_abs="371642552.048154" CO2_abs="7618668272.406666" HC_abs="1868825.373982" PMx_abs="165366.677663" NOx_abs="3364076.150478" fuel_abs="3275105.101343" electricity_abs="0"
            CO_normed="26838.780088" CO2_normed="550194.699712" HC_normed="134.960308" PMx_normed="11.942227" NOx_normed="242.942310" fuel_normed="236.517119" electricity_normed="0"
            traveltime="653.31" CO_perVeh="46322.328398" CO2_perVeh="949607.228024" HC_perVeh="232.934421" PMx_perVeh="20.611659" NOx_perVeh="419.305699" fuel_perVeh="408.216156" electricity_perVeh="0"/>
        </edge>
        <edge id="3">
            <lane id="3_0" sampledSeconds="548712.56" CO_abs="38311471.126915" CO2_abs="827281899.493002" HC_abs="193683.641092" PMx_abs="17969.687016" NOx_abs="365636.804299" fuel_abs="355629.276624" electricity_abs="0"
            CO_normed="27584.259211" CO2_normed="595642.967635" HC_normed="139.452222" PMx_normed="12.938175" NOx_normed="263.258499" fuel_normed="256.053079" electricity_normed="0"
            traveltime="65.97" CO_perVeh="4605.911244" CO2_perVeh="99458.122872" HC_perVeh="23.285184" PMx_perVeh="2.160366" NOx_perVeh="43.957870" fuel_perVeh="42.754737" electricity_perVeh="0"/>
            <lane id="3_1" sampledSeconds="548244.08" CO_abs="38201723.029510" CO2_abs="826069554.902900" HC_abs="193155.906715" PMx_abs="17936.793229" NOx_abs="365070.941994" fuel_abs="355108.080706" electricity_abs="0"
            CO_normed="27505.240581" CO2_normed="594770.079530" HC_normed="139.072253" PMx_normed="12.914491" NOx_normed="262.851078" fuel_normed="255.677818" electricity_normed="0"
            traveltime="65.76" CO_perVeh="4582.048837" CO2_perVeh="99081.683846" HC_perVeh="23.167798" PMx_perVeh="2.151402" NOx_perVeh="43.787891" fuel_perVeh="42.592910" electricity_perVeh="0"/>
        </edge>
        <edge id="4">
            <lane id="4_0" sampledSeconds="93574.25" CO_abs="7891381.291593" CO2_abs="423201769.257566" HC_abs="45942.382780" PMx_abs="8120.388336" NOx_abs="178152.470173" fuel_abs="181916.435762" electricity_abs="0"
            CO_normed="5681.794530" CO2_normed="304705.273865" HC_normed="33.078516" PMx_normed="5.846680" NOx_normed="128.269779" fuel_normed="130.979834" electricity_normed="0"
            traveltime="10.04" CO_perVeh="846.425704" CO2_perVeh="45392.415118" HC_perVeh="4.927758" PMx_perVeh="0.870989" NOx_perVeh="19.108547" fuel_perVeh="19.512268" electricity_perVeh="0"/>
            <lane id="4_1" sampledSeconds="75973.20" CO_abs="6822456.830865" CO2_abs="347818000.917919" HC_abs="39292.490525" PMx_abs="6736.052049" NOx_abs="147014.164194" fuel_abs="149512.334205" electricity_abs="0"
            CO_normed="4912.168918" CO2_normed="250428.960661" HC_normed="28.290593" PMx_normed="4.849957" NOx_normed="105.850198" fuel_normed="107.648881" electricity_normed="0"
            traveltime="10.55" CO_perVeh="947.438170" CO2_perVeh="48301.668789" HC_perVeh="5.456569" PMx_perVeh="0.935439" NOx_perVeh="20.415934" fuel_perVeh="20.762857" electricity_perVeh="0"/>
        </edge>
    </interval>
</meandata>
