<?xml version="1.0" encoding="UTF-8"?>

<!-- generated on Fri Apr 10 21:35:13 2020 by SUMO Version 0.32.0
<?xml version="1.0" encoding="UTF-8"?>

<configuration xmlns:xsi="http://www.w3.org/2001/XMLSchema-instance" xsi:noNamespaceSchemaLocation="http://sumo.dlr.de/xsd/sumoConfiguration.xsd">

    <input>
        <net-file value="base.net.xml"/>
        <route-files value="base.rou.xml"/>
        <additional-files value="additional.xml"/>
    </input>

    <time>
        <begin value="0"/>
        <end value="50000"/>
    </time>

    <random_number>
        <seed value="60983"/>
    </random_number>

</configuration>
-->

<meandata xmlns:xsi="http://www.w3.org/2001/XMLSchema-instance" xsi:noNamespaceSchemaLocation="http://sumo.dlr.de/xsd/meandata_file.xsd">
    <interval begin="0.00" end="50000.00" id="mid">
        <edge id="1">
            <lane id="1_0" sampledSeconds="1050952.21" CO_abs="75878831.412057" CO2_abs="1554901686.218442" HC_abs="381558.784523" PMx_abs="33806.097760" NOx_abs="686796.538429" fuel_abs="668419.455684" electricity_abs="0"
            CO_normed="27316.379308" CO2_normed="559764.607039" HC_normed="137.361162" PMx_normed="12.170195" NOx_normed="247.246754" fuel_normed="240.631004" electricity_normed="0"
            traveltime="130.74" CO_perVeh="9439.663316" CO2_perVeh="193436.669145" HC_perVeh="47.467606" PMx_perVeh="4.205629" NOx_perVeh="85.440537" fuel_perVeh="83.154346" electricity_perVeh="0"/>
            <lane id="1_1" sampledSeconds="1050121.38" CO_abs="75732755.891398" CO2_abs="1553888205.243967" HC_abs="380870.333737" PMx_abs="33771.901564" NOx_abs="686287.244548" fuel_abs="667983.715691" electricity_abs="0"
            CO_normed="27263.792121" CO2_normed="559399.753888" HC_normed="137.113320" PMx_normed="12.157885" NOx_normed="247.063408" fuel_normed="240.474138" electricity_normed="0"
            traveltime="130.31" CO_perVeh="9397.435047" CO2_perVeh="192817.009056" HC_perVeh="47.260979" PMx_perVeh="4.190647" NOx_perVeh="85.159185" fuel_perVeh="82.887959" electricity_perVeh="0"/>
        </edge>
        <edge id="2">
            <lane id="2_1" sampledSeconds="5254196.99" CO_abs="372461898.012327" CO2_abs="7625704097.630735" HC_abs="1872716.395236" PMx_abs="165570.463617" NOx_abs="3367389.413234" fuel_abs="3278129.996731" electricity_abs="0"
            CO_normed="26897.950508" CO2_normed="550702.803440" HC_normed="135.241304" PMx_normed="11.956944" NOx_normed="243.181583" fuel_normed="236.735566" electricity_normed="0"
            traveltime="654.97" CO_perVeh="46429.466472" CO2_perVeh="950586.824084" HC_perVeh="233.444612" PMx_perVeh="20.639288" NOx_perVeh="419.763994" fuel_perVeh="408.637306" electricity_perVeh="0"/>
            <lane id="2_2" sampledSeconds="5249417.80" CO_abs="371993624.808811" CO2_abs="7625693669.889368" HC_abs="1870585.872264" PMx_abs="165517.099468" NOx_abs="3367161.938328" fuel_abs="3278125.182395" electricity_abs="0"
            CO_normed="26864.133386" CO2_normed="550702.050383" HC_normed="135.087445" PMx_normed="11.953090" NOx_normed="243.165155" fuel_normed="236.735219" electricity_normed="0"
            traveltime="653.17" CO_perVeh="46286.003068" CO2_perVeh="948841.208719" HC_perVeh="232.751149" PMx_perVeh="20.594775" NOx_perVeh="418.965427" fuel_perVeh="407.886862" electricity_perVeh="0"/>
        </edge>
        <edge id="3">
            <lane id="3_0" sampledSeconds="548636.79" CO_abs="38275146.806092" CO2_abs="826804745.500944" HC_abs="193507.611711" PMx_abs="17959.651850" NOx_abs="365429.309829" fuel_abs="355424.146391" electricity_abs="0"
            CO_normed="27558.105700" CO2_normed="595299.416761" HC_normed="139.325480" PMx_normed="12.930949" NOx_normed="263.109103" fuel_normed="255.905385" electricity_normed="0"
            traveltime="65.96" CO_perVeh="4601.928137" CO2_perVeh="99409.051023" HC_perVeh="23.265962" PMx_perVeh="2.159339" NOx_perVeh="43.936590" fuel_perVeh="42.733641" electricity_perVeh="0"/>
            <lane id="3_1" sampledSeconds="548178.31" CO_abs="38218938.317783" CO2_abs="826226961.757343" HC_abs="193237.455030" PMx_abs="17939.365047" NOx_abs="365134.119024" fuel_abs="355175.756132" electricity_abs="0"
            CO_normed="27517.635589" CO2_normed="594883.412465" HC_normed="139.130968" PMx_normed="12.916343" NOx_normed="262.896566" fuel_normed="255.726544" electricity_normed="0"
            traveltime="65.73" CO_perVeh="4582.653252" CO2_perVeh="99068.991448" HC_perVeh="23.170195" PMx_perVeh="2.151025" NOx_perVeh="43.781516" fuel_perVeh="42.587455" electricity_perVeh="0"/>
        </edge>
        <edge id="4">
            <lane id="4_0" sampledSeconds="86705.36" CO_abs="7453453.578811" CO2_abs="393030190.395413" HC_abs="43234.775078" PMx_abs="7565.057478" NOx_abs="165673.532167" fuel_abs="168947.021074" electricity_abs="0"
            CO_normed="5366.486577" CO2_normed="282981.737085" HC_normed="31.129038" PMx_normed="5.446841" NOx_normed="119.284943" fuel_normed="121.641855" electricity_normed="0"
            traveltime="10.19" CO_perVeh="875.560621" CO2_perVeh="46169.437267" HC_perVeh="5.078809" PMx_perVeh="0.888671" NOx_perVeh="19.461746" fuel_perVeh="19.846284" electricity_perVeh="0"/>
            <lane id="4_1" sampledSeconds="82685.66" CO_abs="7246689.253128" CO2_abs="377456628.744162" HC_abs="41926.511458" PMx_abs="7285.606933" NOx_abs="159299.637000" fuel_abs="162252.645762" electricity_abs="0"
            CO_normed="5217.616262" CO2_normed="271768.772696" HC_normed="30.187088" PMx_normed="5.245637" NOx_normed="114.695739" fuel_normed="116.821905" electricity_normed="0"
            traveltime="10.32" CO_perVeh="904.144620" CO2_perVeh="47093.971892" HC_perVeh="5.231027" PMx_perVeh="0.909000" NOx_perVeh="19.875271" fuel_perVeh="20.243707" electricity_perVeh="0"/>
        </edge>
    </interval>
</meandata>
