<?xml version="1.0" encoding="UTF-8"?>

<!-- generated on Fri Apr 10 19:15:23 2020 by SUMO Version 0.32.0
<?xml version="1.0" encoding="UTF-8"?>

<configuration xmlns:xsi="http://www.w3.org/2001/XMLSchema-instance" xsi:noNamespaceSchemaLocation="http://sumo.dlr.de/xsd/sumoConfiguration.xsd">

    <input>
        <net-file value="base.net.xml"/>
        <route-files value="base.rou.xml"/>
        <additional-files value="additional.xml"/>
    </input>

    <time>
        <begin value="0"/>
        <end value="50000"/>
    </time>

    <random_number>
        <seed value="35452"/>
    </random_number>

</configuration>
-->

<meandata xmlns:xsi="http://www.w3.org/2001/XMLSchema-instance" xsi:noNamespaceSchemaLocation="http://sumo.dlr.de/xsd/meandata_file.xsd">
    <interval begin="0.00" end="50000.00" id="mid">
        <edge id="1">
            <lane id="1_0" sampledSeconds="1051288.77" CO_abs="75916724.939816" CO2_abs="1554236232.542424" HC_abs="381715.190287" PMx_abs="33799.432191" NOx_abs="686534.204921" fuel_abs="668133.441363" electricity_abs="0"
            CO_normed="27330.020978" CO2_normed="559525.043715" HC_normed="137.417469" PMx_normed="12.167796" NOx_normed="247.152314" fuel_normed="240.528039" electricity_normed="0"
            traveltime="131.02" CO_perVeh="9461.448478" CO2_perVeh="193703.377591" HC_perVeh="47.572898" PMx_perVeh="4.212400" NOx_perVeh="85.562279" fuel_perVeh="83.269005" electricity_perVeh="0"/>
            <lane id="1_1" sampledSeconds="1050746.58" CO_abs="75891858.197905" CO2_abs="1555391842.053767" HC_abs="381629.161095" PMx_abs="33814.581187" NOx_abs="686998.729476" fuel_abs="668630.157331" electricity_abs="0"
            CO_normed="27321.068951" CO2_normed="559941.063139" HC_normed="137.386498" PMx_normed="12.173249" NOx_normed="247.319543" fuel_normed="240.706857" electricity_normed="0"
            traveltime="130.70" CO_perVeh="9440.125587" CO2_perVeh="193473.907142" HC_perVeh="47.470536" PMx_perVeh="4.206168" NOx_perVeh="85.455205" fuel_perVeh="83.170353" electricity_perVeh="0"/>
        </edge>
        <edge id="2">
            <lane id="2_1" sampledSeconds="5256504.45" CO_abs="372798709.097167" CO2_abs="7628744347.497429" HC_abs="1874323.194242" PMx_abs="165678.988229" NOx_abs="3368965.700054" fuel_abs="3279437.036658" electricity_abs="0"
            CO_normed="26922.273877" CO2_normed="550922.360100" HC_normed="135.357342" PMx_normed="11.964781" NOx_normed="243.295417" fuel_normed="236.829957" electricity_normed="0"
            traveltime="656.53" CO_perVeh="46562.177748" CO2_perVeh="952822.372063" HC_perVeh="234.101051" PMx_perVeh="20.693136" NOx_perVeh="420.780373" fuel_perVeh="409.598334" electricity_perVeh="0"/>
            <lane id="2_2" sampledSeconds="5253111.33" CO_abs="372547809.136417" CO2_abs="7629845012.156013" HC_abs="1873206.466204" PMx_abs="165661.884248" NOx_abs="3369265.037333" fuel_abs="3279909.983076" electricity_abs="0"
            CO_normed="26904.154722" CO2_normed="551001.846414" HC_normed="135.276696" PMx_normed="11.963546" NOx_normed="243.317034" fuel_normed="236.864111" electricity_normed="0"
            traveltime="655.13" CO_perVeh="46461.168202" CO2_perVeh="951532.940934" HC_perVeh="233.611254" PMx_perVeh="20.660019" NOx_perVeh="420.187653" fuel_perVeh="409.044009" electricity_perVeh="0"/>
        </edge>
        <edge id="3">
            <lane id="3_0" sampledSeconds="548970.83" CO_abs="38217256.285888" CO2_abs="824767861.103187" HC_abs="193196.006213" PMx_abs="17917.463083" NOx_abs="364537.806811" fuel_abs="354548.565603" electricity_abs="0"
            CO_normed="27516.424526" CO2_normed="593832.859994" HC_normed="139.101124" PMx_normed="12.900573" NOx_normed="262.467221" fuel_normed="255.274967" electricity_normed="0"
            traveltime="66.12" CO_perVeh="4603.363047" CO2_perVeh="99345.328858" HC_perVeh="23.270937" PMx_perVeh="2.158203" NOx_perVeh="43.909480" fuel_perVeh="42.706252" electricity_perVeh="0"/>
            <lane id="3_1" sampledSeconds="548485.59" CO_abs="38157600.938180" CO2_abs="824478800.961788" HC_abs="192917.966081" PMx_abs="17906.295682" NOx_abs="364388.176850" fuel_abs="354424.272226" electricity_abs="0"
            CO_normed="27473.472675" CO2_normed="593624.736692" HC_normed="138.900936" PMx_normed="12.892533" NOx_normed="262.359487" fuel_normed="255.185476" electricity_normed="0"
            traveltime="65.94" CO_perVeh="4587.122946" CO2_perVeh="99114.869201" HC_perVeh="23.191668" PMx_perVeh="2.152609" NOx_perVeh="43.804991" fuel_perVeh="42.607178" electricity_perVeh="0"/>
        </edge>
        <edge id="4">
            <lane id="4_0" sampledSeconds="86130.10" CO_abs="7420146.052996" CO2_abs="390596403.581049" HC_abs="43026.948956" PMx_abs="7521.698328" NOx_abs="164675.575937" fuel_abs="167900.844601" electricity_abs="0"
            CO_normed="5342.505158" CO2_normed="281229.410578" HC_normed="30.979403" PMx_normed="5.415623" NOx_normed="118.566415" fuel_normed="120.888608" electricity_normed="0"
            traveltime="10.20" CO_perVeh="878.654044" CO2_perVeh="46252.338829" HC_perVeh="5.095021" PMx_perVeh="0.890679" NOx_perVeh="19.500002" fuel_perVeh="19.881921" electricity_perVeh="0"/>
            <lane id="4_1" sampledSeconds="82883.55" CO_abs="7254685.591785" CO2_abs="378170504.634025" HC_abs="41979.990988" PMx_abs="7302.472248" NOx_abs="159621.324247" fuel_abs="162559.501065" electricity_abs="0"
            CO_normed="5223.373626" CO2_normed="272282.763336" HC_normed="30.225594" PMx_normed="5.257780" NOx_normed="114.927353" fuel_normed="117.042841" electricity_normed="0"
            traveltime="10.30" CO_perVeh="901.517462" CO2_perVeh="46994.085322" HC_perVeh="5.216724" PMx_perVeh="0.907456" NOx_perVeh="19.835651" fuel_perVeh="20.200769" electricity_perVeh="0"/>
        </edge>
    </interval>
</meandata>
