<?xml version="1.0" encoding="UTF-8"?>

<!-- generated on Fri Apr 10 19:17:38 2020 by SUMO Version 0.32.0
<?xml version="1.0" encoding="UTF-8"?>

<configuration xmlns:xsi="http://www.w3.org/2001/XMLSchema-instance" xsi:noNamespaceSchemaLocation="http://sumo.dlr.de/xsd/sumoConfiguration.xsd">

    <input>
        <net-file value="base.net.xml"/>
        <route-files value="base.rou.xml"/>
        <additional-files value="additional.xml"/>
    </input>

    <time>
        <begin value="0"/>
        <end value="50000"/>
    </time>

    <random_number>
        <seed value="53241"/>
    </random_number>

</configuration>
-->

<meandata xmlns:xsi="http://www.w3.org/2001/XMLSchema-instance" xsi:noNamespaceSchemaLocation="http://sumo.dlr.de/xsd/meandata_file.xsd">
    <interval begin="0.00" end="50000.00" id="mid">
        <edge id="1">
            <lane id="1_0" sampledSeconds="1053526.13" CO_abs="76907576.782747" CO2_abs="1578754712.723924" HC_abs="386831.489057" PMx_abs="34459.834344" NOx_abs="697859.778107" fuel_abs="678673.082720" electricity_abs="0"
            CO_normed="27686.727642" CO2_normed="568351.696581" HC_normed="139.259336" PMx_normed="12.405540" NOx_normed="251.229520" fuel_normed="244.322310" electricity_normed="0"
            traveltime="131.03" CO_perVeh="9565.326464" CO2_perVeh="196356.521242" HC_perVeh="48.111898" PMx_perVeh="4.285918" NOx_perVeh="86.795825" fuel_perVeh="84.409493" electricity_perVeh="0"/>
            <lane id="1_1" sampledSeconds="1048948.38" CO_abs="75670192.123047" CO2_abs="1554072484.888272" HC_abs="380589.367964" PMx_abs="33763.919288" NOx_abs="686291.638379" fuel_abs="668062.890623" electricity_abs="0"
            CO_normed="27241.269164" CO2_normed="559466.094560" HC_normed="137.012172" PMx_normed="12.155011" NOx_normed="247.064990" fuel_normed="240.502641" electricity_normed="0"
            traveltime="129.80" CO_perVeh="9363.446355" CO2_perVeh="192301.273931" HC_perVeh="47.094213" PMx_perVeh="4.177955" NOx_perVeh="84.921880" fuel_perVeh="82.666250" electricity_perVeh="0"/>
        </edge>
        <edge id="2">
            <lane id="2_0" sampledSeconds="126771.50" CO_abs="3993489.514031" CO2_abs="255951099.143048" HC_abs="24111.835923" PMx_abs="4079.621758" NOx_abs="100397.900918" fuel_abs="110023.294253" electricity_abs="0"
            CO_normed="288.396434" CO2_normed="18483.930931" HC_normed="1.741276" PMx_normed="0.294617" NOx_normed="7.250400" fuel_normed="7.945514" electricity_normed="0"
            traveltime="96.54" CO_perVeh="3041.154072" CO2_perVeh="194913.927963" HC_perVeh="18.361838" PMx_perVeh="3.106746" NOx_perVeh="76.455812" fuel_perVeh="83.785819" electricity_perVeh="0"/>
            <lane id="2_1" sampledSeconds="5465415.73" CO_abs="398833582.901961" CO2_abs="7677850637.823062" HC_abs="1994165.515336" PMx_abs="170815.882132" NOx_abs="3410863.670021" fuel_abs="3300561.439604" electricity_abs="0"
            CO_normed="28802.425245" CO2_normed="554468.651879" HC_normed="144.011953" PMx_normed="12.335751" NOx_normed="246.321148" fuel_normed="238.355490" electricity_normed="0"
            traveltime="812.86" CO_perVeh="59317.741435" CO2_perVeh="1141911.760775" HC_perVeh="296.588350" PMx_perVeh="25.405113" NOx_perVeh="507.291106" fuel_perVeh="490.886070" electricity_perVeh="0"/>
            <lane id="2_2" sampledSeconds="5244726.25" CO_abs="371648334.331754" CO2_abs="7624410246.292650" HC_abs="1868983.677102" PMx_abs="165447.926576" NOx_abs="3366390.962135" fuel_abs="3277573.280332" electricity_abs="0"
            CO_normed="26839.197665" CO2_normed="550609.365831" HC_normed="134.971740" PMx_normed="11.948095" NOx_normed="243.109478" fuel_normed="236.695362" electricity_normed="0"
            traveltime="651.91" CO_perVeh="46195.554592" CO2_perVeh="947707.354583" HC_perVeh="232.312995" PMx_perVeh="20.565029" NOx_perVeh="418.439377" fuel_perVeh="407.399419" electricity_perVeh="0"/>
        </edge>
        <edge id="3">
            <lane id="3_0" sampledSeconds="548627.89" CO_abs="38270611.181449" CO2_abs="826915616.663821" HC_abs="193489.555445" PMx_abs="17960.765733" NOx_abs="365472.599722" fuel_abs="355471.800759" electricity_abs="0"
            CO_normed="27554.840051" CO2_normed="595379.243998" HC_normed="139.312480" PMx_normed="12.931751" NOx_normed="263.140272" fuel_normed="255.939697" electricity_normed="0"
            traveltime="65.91" CO_perVeh="4597.753623" CO2_perVeh="99343.965381" HC_perVeh="23.245443" PMx_perVeh="2.157770" NOx_perVeh="43.907137" fuel_perVeh="42.705661" electricity_perVeh="0"/>
            <lane id="3_1" sampledSeconds="547935.91" CO_abs="38198259.983492" CO2_abs="826757940.692606" HC_abs="193156.258283" PMx_abs="17947.337589" NOx_abs="365352.975472" fuel_abs="355403.977607" electricity_abs="0"
            CO_normed="27502.747188" CO2_normed="595265.717299" HC_normed="139.072506" PMx_normed="12.922083" NOx_normed="263.054142" fuel_normed="255.890864" electricity_normed="0"
            traveltime="65.59" CO_perVeh="4572.584610" CO2_perVeh="98968.399015" HC_perVeh="23.122083" PMx_perVeh="2.148415" NOx_perVeh="43.735170" fuel_perVeh="42.544209" electricity_perVeh="0"/>
        </edge>
        <edge id="4">
            <lane id="4_0" sampledSeconds="91834.33" CO_abs="7781662.891795" CO2_abs="415563389.246791" HC_abs="45263.547132" PMx_abs="7981.389106" NOx_abs="175005.298018" fuel_abs="178633.035811" electricity_abs="0"
            CO_normed="5602.797282" CO2_normed="299205.640258" HC_normed="32.589754" PMx_normed="5.746600" NOx_normed="126.003815" fuel_normed="128.615786" electricity_normed="0"
            traveltime="10.07" CO_perVeh="853.432406" CO2_perVeh="45575.768073" HC_perVeh="4.964155" PMx_perVeh="0.875337" NOx_perVeh="19.193223" fuel_perVeh="19.591085" electricity_perVeh="0"/>
            <lane id="4_1" sampledSeconds="77893.59" CO_abs="6947985.738602" CO2_abs="356500762.604560" HC_abs="40070.265764" PMx_abs="6897.846056" NOx_abs="150621.040039" fuel_abs="153244.662135" electricity_abs="0"
            CO_normed="5002.549732" CO2_normed="256680.549075" HC_normed="28.850591" PMx_normed="4.966449" NOx_normed="108.447149" fuel_normed="110.336157" electricity_normed="0"
            traveltime="10.48" CO_perVeh="934.816205" CO2_perVeh="47965.367580" HC_perVeh="5.391251" PMx_perVeh="0.928070" NOx_perVeh="20.265296" fuel_perVeh="20.618291" electricity_perVeh="0"/>
        </edge>
    </interval>
</meandata>
