<?xml version="1.0" encoding="UTF-8"?>

<!-- generated on Fri Apr 10 19:23:32 2020 by SUMO Version 0.32.0
<?xml version="1.0" encoding="UTF-8"?>

<configuration xmlns:xsi="http://www.w3.org/2001/XMLSchema-instance" xsi:noNamespaceSchemaLocation="http://sumo.dlr.de/xsd/sumoConfiguration.xsd">

    <input>
        <net-file value="base.net.xml"/>
        <route-files value="base.rou.xml"/>
        <additional-files value="additional.xml"/>
    </input>

    <time>
        <begin value="0"/>
        <end value="50000"/>
    </time>

    <random_number>
        <seed value="37006"/>
    </random_number>

</configuration>
-->

<meandata xmlns:xsi="http://www.w3.org/2001/XMLSchema-instance" xsi:noNamespaceSchemaLocation="http://sumo.dlr.de/xsd/meandata_file.xsd">
    <interval begin="0.00" end="50000.00" id="mid">
        <edge id="1">
            <lane id="1_0" sampledSeconds="1054951.97" CO_abs="77552882.608905" CO2_abs="1598056758.615210" HC_abs="390258.087627" PMx_abs="35016.360496" NOx_abs="706914.127502" fuel_abs="686970.199440" electricity_abs="0"
            CO_normed="27919.037739" CO2_normed="575300.433101" HC_normed="140.492912" PMx_normed="12.605890" NOx_normed="254.489086" fuel_normed="247.309272" electricity_normed="0"
            traveltime="131.41" CO_perVeh="9660.139675" CO2_perVeh="199057.094688" HC_perVeh="48.611315" PMx_perVeh="4.361707" NOx_perVeh="88.054615" fuel_perVeh="85.570360" electricity_perVeh="0"/>
            <lane id="1_1" sampledSeconds="1048007.45" CO_abs="75614026.188864" CO2_abs="1553547387.983974" HC_abs="380323.025659" PMx_abs="33754.425303" NOx_abs="686051.432952" fuel_abs="667837.135612" electricity_abs="0"
            CO_normed="27221.049428" CO2_normed="559277.059674" HC_normed="136.916289" PMx_normed="12.151593" NOx_normed="246.978516" fuel_normed="240.421369" electricity_normed="0"
            traveltime="129.63" CO_perVeh="9352.663086" CO2_perVeh="192157.540598" HC_perVeh="47.041975" PMx_perVeh="4.175069" NOx_perVeh="84.857377" fuel_perVeh="82.604459" electricity_perVeh="0"/>
        </edge>
        <edge id="2">
            <lane id="2_0" sampledSeconds="294765.17" CO_abs="11333407.566759" CO2_abs="545536216.039174" HC_abs="64245.110047" PMx_abs="9185.956348" NOx_abs="217790.270922" fuel_abs="234506.127854" electricity_abs="0"
            CO_normed="818.460727" CO2_normed="39396.797949" HC_normed="4.639567" PMx_normed="0.663379" NOx_normed="15.728084" fuel_normed="16.935247" electricity_normed="0"
            traveltime="118.18" CO_perVeh="4544.041149" CO2_perVeh="218728.480304" HC_perVeh="25.758575" PMx_perVeh="3.683037" NOx_perVeh="87.321306" fuel_perVeh="94.023398" electricity_perVeh="0"/>
            <lane id="2_1" sampledSeconds="5657288.50" CO_abs="423644733.159365" CO2_abs="7768473838.075345" HC_abs="2109470.200693" PMx_abs="176739.746458" NOx_abs="3470629.536166" fuel_abs="3339530.453831" electricity_abs="0"
            CO_normed="30594.203398" CO2_normed="561013.155809" HC_normed="152.338871" PMx_normed="12.763552" NOx_normed="250.637238" fuel_normed="241.169702" electricity_normed="0"
            traveltime="1019.15" CO_perVeh="76319.049545" CO2_perVeh="1399480.492330" HC_perVeh="380.018322" PMx_perVeh="31.839436" NOx_perVeh="625.229412" fuel_perVeh="601.612083" electricity_perVeh="0"/>
            <lane id="2_2" sampledSeconds="5242460.37" CO_abs="371684431.426460" CO2_abs="7619718336.819058" HC_abs="1869043.302959" PMx_abs="165403.017216" NOx_abs="3364622.339430" fuel_abs="3275556.473741" electricity_abs="0"
            CO_normed="26841.804476" CO2_normed="550270.531847" HC_normed="134.976046" PMx_normed="11.944852" NOx_normed="242.981754" fuel_normed="236.549715" electricity_normed="0"
            traveltime="653.58" CO_perVeh="46338.072817" CO2_perVeh="949953.867532" HC_perVeh="233.014507" PMx_perVeh="20.620872" NOx_perVeh="419.469049" fuel_perVeh="408.365166" electricity_perVeh="0"/>
        </edge>
        <edge id="3">
            <lane id="3_0" sampledSeconds="548762.82" CO_abs="38283449.458906" CO2_abs="827079162.022020" HC_abs="193551.285322" PMx_abs="17962.363623" NOx_abs="365531.821586" fuel_abs="355542.112647" electricity_abs="0"
            CO_normed="27564.083610" CO2_normed="595496.996656" HC_normed="139.356925" PMx_normed="12.932902" NOx_normed="263.182912" fuel_normed="255.990321" electricity_normed="0"
            traveltime="65.94" CO_perVeh="4600.047021" CO2_perVeh="99379.838794" HC_perVeh="23.256656" PMx_perVeh="2.158314" NOx_perVeh="43.921423" fuel_perVeh="42.721083" electricity_perVeh="0"/>
            <lane id="3_1" sampledSeconds="548201.43" CO_abs="38189237.059058" CO2_abs="825408626.049831" HC_abs="193083.201360" PMx_abs="17922.601941" NOx_abs="364776.922226" fuel_abs="354823.978304" electricity_abs="0"
            CO_normed="27496.250683" CO2_normed="594294.210756" HC_normed="139.019905" PMx_normed="12.904273" NOx_normed="262.639384" fuel_normed="255.473264" electricity_normed="0"
            traveltime="65.78" CO_perVeh="4582.436353" CO2_perVeh="99043.154182" HC_perVeh="23.168608" PMx_perVeh="2.150585" NOx_perVeh="43.770632" fuel_perVeh="42.576349" electricity_perVeh="0"/>
        </edge>
        <edge id="4">
            <lane id="4_0" sampledSeconds="94584.91" CO_abs="7958857.050448" CO2_abs="427435552.982876" HC_abs="46350.288619" PMx_abs="8198.566503" NOx_abs="179905.649646" fuel_abs="183736.355210" electricity_abs="0"
            CO_normed="5730.377076" CO2_normed="307753.598148" HC_normed="33.372208" PMx_normed="5.902968" NOx_normed="129.532068" fuel_normed="132.290176" electricity_normed="0"
            traveltime="10.02" CO_perVeh="843.405925" CO2_perVeh="45295.659355" HC_perVeh="4.911774" PMx_perVeh="0.868808" NOx_perVeh="19.064734" fuel_perVeh="19.470676" electricity_perVeh="0"/>
            <lane id="4_1" sampledSeconds="75098.76" CO_abs="6770837.319238" CO2_abs="343680732.829231" HC_abs="38960.056184" PMx_abs="6664.314162" NOx_abs="145340.623330" fuel_abs="147733.906892" electricity_abs="0"
            CO_normed="4875.002870" CO2_normed="247450.127637" HC_normed="28.051240" PMx_normed="4.798306" NOx_normed="104.645249" fuel_normed="106.368413" electricity_normed="0"
            traveltime="10.59" CO_perVeh="954.765764" CO2_perVeh="48462.927407" HC_perVeh="5.493815" PMx_perVeh="0.939745" NOx_perVeh="20.494696" fuel_perVeh="20.832176" electricity_perVeh="0"/>
        </edge>
    </interval>
</meandata>
