<?xml version="1.0" encoding="UTF-8"?>

<!-- generated on Fri Apr 10 19:30:29 2020 by SUMO Version 0.32.0
<?xml version="1.0" encoding="UTF-8"?>

<configuration xmlns:xsi="http://www.w3.org/2001/XMLSchema-instance" xsi:noNamespaceSchemaLocation="http://sumo.dlr.de/xsd/sumoConfiguration.xsd">

    <input>
        <net-file value="base.net.xml"/>
        <route-files value="base.rou.xml"/>
        <additional-files value="additional.xml"/>
    </input>

    <time>
        <begin value="0"/>
        <end value="50000"/>
    </time>

    <random_number>
        <seed value="11540"/>
    </random_number>

</configuration>
-->

<meandata xmlns:xsi="http://www.w3.org/2001/XMLSchema-instance" xsi:noNamespaceSchemaLocation="http://sumo.dlr.de/xsd/meandata_file.xsd">
    <interval begin="0.00" end="50000.00" id="mid">
        <edge id="1">
            <lane id="1_0" sampledSeconds="1055617.92" CO_abs="77544652.920594" CO2_abs="1602082191.169379" HC_abs="390330.390739" PMx_abs="35149.807925" NOx_abs="708894.779212" fuel_abs="688700.412521" electricity_abs="0"
            CO_normed="27916.075051" CO2_normed="576749.588821" HC_normed="140.518941" PMx_normed="12.653931" NOx_normed="255.202121" fuel_normed="247.932149" electricity_normed="0"
            traveltime="131.68" CO_perVeh="9672.889435" CO2_perVeh="199843.100932" HC_perVeh="48.689659" PMx_perVeh="4.384573" NOx_perVeh="88.427255" fuel_perVeh="85.908218" electricity_perVeh="0"/>
            <lane id="1_1" sampledSeconds="1047309.33" CO_abs="75548806.983649" CO2_abs="1552712629.205026" HC_abs="380006.849035" PMx_abs="33732.494438" NOx_abs="685655.227387" fuel_abs="667478.275573" electricity_abs="0"
            CO_normed="27197.570514" CO2_normed="558976.546514" HC_normed="136.802466" PMx_normed="12.143698" NOx_normed="246.835882" fuel_normed="240.292179" electricity_normed="0"
            traveltime="129.34" CO_perVeh="9329.771705" CO2_perVeh="191749.611053" HC_perVeh="46.928301" PMx_perVeh="4.165737" NOx_perVeh="84.673829" fuel_perVeh="82.429097" electricity_perVeh="0"/>
        </edge>
        <edge id="2">
            <lane id="2_0" sampledSeconds="419501.77" CO_abs="18179475.165360" CO2_abs="740490120.594424" HC_abs="99946.009751" PMx_abs="12978.295787" NOx_abs="299587.131927" fuel_abs="318311.248094" electricity_abs="0"
            CO_normed="1312.860794" CO2_normed="53475.715830" HC_normed="7.217766" PMx_normed="0.937249" NOx_normed="21.635179" fuel_normed="22.987372" electricity_normed="0"
            traveltime="136.64" CO_perVeh="5921.442546" CO2_perVeh="241193.415374" HC_perVeh="32.554546" PMx_perVeh="4.227308" NOx_perVeh="97.581914" fuel_perVeh="103.680758" electricity_perVeh="0"/>
            <lane id="2_1" sampledSeconds="5755197.47" CO_abs="436588108.031090" CO2_abs="7829058140.037210" HC_abs="2169940.838080" PMx_abs="180075.106856" NOx_abs="3507465.695645" fuel_abs="3365580.139004" electricity_abs="0"
            CO_normed="31528.930570" CO2_normed="565388.351136" HC_normed="156.705858" PMx_normed="13.004421" NOx_normed="253.297422" fuel_normed="243.050923" electricity_normed="0"
            traveltime="1157.47" CO_perVeh="87805.529441" CO2_perVeh="1574560.970323" HC_perVeh="436.413179" PMx_perVeh="36.216264" NOx_perVeh="705.412898" fuel_perVeh="676.877223" electricity_perVeh="0"/>
            <lane id="2_2" sampledSeconds="5239304.65" CO_abs="371375692.019982" CO2_abs="7614254095.068060" HC_abs="1867506.830143" PMx_abs="165256.998509" NOx_abs="3362047.894007" fuel_abs="3273207.515462" electricity_abs="0"
            CO_normed="26819.508350" CO2_normed="549875.922613" HC_normed="134.865087" PMx_normed="11.934307" NOx_normed="242.795836" fuel_normed="236.380081" electricity_normed="0"
            traveltime="652.85" CO_perVeh="46275.549183" CO2_perVeh="948779.894436" HC_perVeh="232.702102" PMx_perVeh="20.591973" NOx_perVeh="418.930522" fuel_perVeh="407.860500" electricity_perVeh="0"/>
        </edge>
        <edge id="3">
            <lane id="3_0" sampledSeconds="548787.99" CO_abs="38229806.188469" CO2_abs="825868998.251383" HC_abs="193279.523815" PMx_abs="17939.604632" NOx_abs="365017.805600" fuel_abs="355021.888212" electricity_abs="0"
            CO_normed="27525.460456" CO2_normed="594625.678741" HC_normed="139.161257" PMx_normed="12.916515" NOx_normed="262.812820" fuel_normed="255.615760" electricity_normed="0"
            traveltime="65.99" CO_perVeh="4597.325030" CO2_perVeh="99314.869612" HC_perVeh="23.242828" PMx_perVeh="2.157327" NOx_perVeh="43.895213" fuel_perVeh="42.693154" electricity_perVeh="0"/>
            <lane id="3_1" sampledSeconds="548231.93" CO_abs="38242621.348324" CO2_abs="826793673.369785" HC_abs="193358.438826" PMx_abs="17951.036486" NOx_abs="365381.553805" fuel_abs="355419.370969" electricity_abs="0"
            CO_normed="27534.687371" CO2_normed="595291.444826" HC_normed="139.218076" PMx_normed="12.924746" NOx_normed="263.074719" fuel_normed="255.901947" electricity_normed="0"
            traveltime="65.72" CO_perVeh="4584.116744" CO2_perVeh="99107.189535" HC_perVeh="23.177743" PMx_perVeh="2.151778" NOx_perVeh="43.798036" fuel_perVeh="42.603876" electricity_perVeh="0"/>
        </edge>
        <edge id="4">
            <lane id="4_0" sampledSeconds="95665.89" CO_abs="8025257.840742" CO2_abs="432299282.537441" HC_abs="46767.552941" PMx_abs="8287.792867" NOx_abs="181916.440493" fuel_abs="185827.052114" electricity_abs="0"
            CO_normed="5778.185645" CO2_normed="311255.483427" HC_normed="33.672638" PMx_normed="5.967211" NOx_normed="130.979837" fuel_normed="133.795478" electricity_normed="0"
            traveltime="10.00" CO_perVeh="838.893397" CO2_perVeh="45188.954764" HC_perVeh="4.888689" PMx_perVeh="0.866337" NOx_perVeh="19.016025" fuel_perVeh="19.424807" electricity_perVeh="0"/>
            <lane id="4_1" sampledSeconds="74021.19" CO_abs="6700753.097723" CO2_abs="338829469.318249" HC_abs="38526.594907" PMx_abs="6575.698010" NOx_abs="143338.749966" fuel_abs="145648.564579" electricity_abs="0"
            CO_normed="4824.542230" CO2_normed="243957.217909" HC_normed="27.739148" PMx_normed="4.734503" NOx_normed="103.203900" fuel_normed="104.866966" electricity_normed="0"
            traveltime="10.63" CO_perVeh="962.329391" CO2_perVeh="48661.031405" HC_perVeh="5.533001" PMx_perVeh="0.944370" NOx_perVeh="20.585610" fuel_perVeh="20.917335" electricity_perVeh="0"/>
        </edge>
    </interval>
</meandata>
