<?xml version="1.0" encoding="UTF-8"?>

<!-- generated on Fri Apr 10 21:04:17 2020 by SUMO Version 0.32.0
<?xml version="1.0" encoding="UTF-8"?>

<configuration xmlns:xsi="http://www.w3.org/2001/XMLSchema-instance" xsi:noNamespaceSchemaLocation="http://sumo.dlr.de/xsd/sumoConfiguration.xsd">

    <input>
        <net-file value="base.net.xml"/>
        <route-files value="base.rou.xml"/>
        <additional-files value="additional.xml"/>
    </input>

    <time>
        <begin value="0"/>
        <end value="50000"/>
    </time>

    <random_number>
        <seed value="51083"/>
    </random_number>

</configuration>
-->

<meandata xmlns:xsi="http://www.w3.org/2001/XMLSchema-instance" xsi:noNamespaceSchemaLocation="http://sumo.dlr.de/xsd/meandata_file.xsd">
    <interval begin="0.00" end="50000.00" id="mid">
        <edge id="1">
            <lane id="1_0" sampledSeconds="1055526.98" CO_abs="77497286.953743" CO2_abs="1600539215.254489" HC_abs="390075.569015" PMx_abs="35105.778523" NOx_abs="708166.391473" fuel_abs="688037.157410" electricity_abs="0"
            CO_normed="27899.023303" CO2_normed="576194.117492" HC_normed="140.427205" PMx_normed="12.638080" NOx_normed="254.939901" fuel_normed="247.693377" electricity_normed="0"
            traveltime="131.71" CO_perVeh="9670.355769" CO2_perVeh="199720.328822" HC_perVeh="48.674859" PMx_perVeh="4.380610" NOx_perVeh="88.367235" fuel_perVeh="85.855445" electricity_perVeh="0"/>
            <lane id="1_1" sampledSeconds="1047033.27" CO_abs="75542410.224644" CO2_abs="1552328398.354746" HC_abs="379969.206659" PMx_abs="33727.619017" NOx_abs="685489.932429" fuel_abs="667313.109936" electricity_abs="0"
            CO_normed="27195.267681" CO2_normed="558838.223408" HC_normed="136.788914" PMx_normed="12.141943" NOx_normed="246.776376" fuel_normed="240.232720" electricity_normed="0"
            traveltime="129.44" CO_perVeh="9339.050685" CO2_perVeh="191909.068674" HC_perVeh="46.974298" PMx_perVeh="4.169631" NOx_perVeh="84.744784" fuel_perVeh="82.497645" electricity_perVeh="0"/>
        </edge>
        <edge id="2">
            <lane id="2_0" sampledSeconds="437255.29" CO_abs="19670134.969102" CO2_abs="764887038.810617" HC_abs="107300.550806" PMx_abs="13561.604928" NOx_abs="310665.620846" fuel_abs="328799.148936" electricity_abs="0"
            CO_normed="1420.511252" CO2_normed="55237.579533" HC_normed="7.748886" PMx_normed="0.979374" NOx_normed="22.435230" fuel_normed="23.744773" electricity_normed="0"
            traveltime="142.30" CO_perVeh="6401.366548" CO2_perVeh="248921.642410" HC_perVeh="34.919443" PMx_perVeh="4.413432" NOx_perVeh="101.101722" fuel_perVeh="107.003021" electricity_perVeh="0"/>
            <lane id="2_1" sampledSeconds="5752890.72" CO_abs="436535168.472093" CO2_abs="7829564426.680883" HC_abs="2169707.096185" PMx_abs="180054.749085" NOx_abs="3507524.253482" fuel_abs="3365797.758491" electricity_abs="0"
            CO_normed="31525.107452" CO2_normed="565424.913461" HC_normed="156.688978" PMx_normed="13.002951" NOx_normed="253.301651" fuel_normed="243.066639" electricity_normed="0"
            traveltime="1154.93" CO_perVeh="87637.131322" CO2_perVeh="1571833.417817" HC_perVeh="435.582101" PMx_perVeh="36.147103" NOx_perVeh="704.157158" fuel_perVeh="675.704689" electricity_perVeh="0"/>
            <lane id="2_2" sampledSeconds="5241396.09" CO_abs="371603719.535113" CO2_abs="7611809080.627705" HC_abs="1868489.741759" PMx_abs="165260.518142" NOx_abs="3361258.488912" fuel_abs="3272156.673768" electricity_abs="0"
            CO_normed="26835.975734" CO2_normed="549699.351861" HC_normed="134.936070" PMx_normed="11.934561" NOx_normed="242.738828" fuel_normed="236.304193" electricity_normed="0"
            traveltime="654.91" CO_perVeh="46431.914088" CO2_perVeh="951096.145453" HC_perVeh="233.467941" PMx_perVeh="20.649315" NOx_perVeh="419.989514" fuel_perVeh="408.856235" electricity_perVeh="0"/>
        </edge>
        <edge id="3">
            <lane id="3_0" sampledSeconds="548635.91" CO_abs="38233367.035822" CO2_abs="825673629.607891" HC_abs="193290.465230" PMx_abs="17933.485789" NOx_abs="364918.249763" fuel_abs="354937.917537" electricity_abs="0"
            CO_normed="27528.024266" CO2_normed="594485.013318" HC_normed="139.169135" PMx_normed="12.912110" NOx_normed="262.741140" fuel_normed="255.555301" electricity_normed="0"
            traveltime="65.92" CO_perVeh="4593.811920" CO2_perVeh="99206.260281" HC_perVeh="23.224218" PMx_perVeh="2.154742" NOx_perVeh="43.845623" fuel_perVeh="42.646467" electricity_perVeh="0"/>
            <lane id="3_1" sampledSeconds="548583.23" CO_abs="38228512.330274" CO2_abs="825833101.622221" HC_abs="193272.324414" PMx_abs="17936.674104" NOx_abs="364991.157890" fuel_abs="355006.460362" electricity_abs="0"
            CO_normed="27524.528878" CO2_normed="594599.833168" HC_normed="139.156074" PMx_normed="12.914405" NOx_normed="262.793634" fuel_normed="255.604651" electricity_normed="0"
            traveltime="65.94" CO_perVeh="4594.802088" CO2_perVeh="99259.412103" HC_perVeh="23.229993" PMx_perVeh="2.155864" NOx_perVeh="43.869406" fuel_perVeh="42.669315" electricity_perVeh="0"/>
        </edge>
        <edge id="4">
            <lane id="4_0" sampledSeconds="95898.58" CO_abs="8044738.660285" CO2_abs="433254352.777838" HC_abs="46879.707006" PMx_abs="8309.263092" NOx_abs="182343.567146" fuel_abs="186237.592379" electricity_abs="0"
            CO_normed="5792.211835" CO2_normed="311943.134000" HC_normed="33.753389" PMx_normed="5.982669" NOx_normed="131.287368" fuel_normed="134.091067" electricity_normed="0"
            traveltime="10.00" CO_perVeh="838.464754" CO2_perVeh="45156.035456" HC_perVeh="4.886048" PMx_perVeh="0.866035" NOx_perVeh="19.004801" fuel_perVeh="19.410656" electricity_perVeh="0"/>
            <lane id="4_1" sampledSeconds="73611.36" CO_abs="6665348.322013" CO2_abs="336666084.550284" HC_abs="38313.229355" PMx_abs="6531.753357" NOx_abs="142409.850371" fuel_abs="144718.625630" electricity_abs="0"
            CO_normed="4799.050792" CO2_normed="242399.580876" HC_normed="27.585525" PMx_normed="4.702862" NOx_normed="102.535092" fuel_normed="104.197410" electricity_normed="0"
            traveltime="10.64" CO_perVeh="963.793930" CO2_perVeh="48681.136073" HC_perVeh="5.540004" PMx_perVeh="0.944476" NOx_perVeh="20.592135" fuel_perVeh="20.925978" electricity_perVeh="0"/>
        </edge>
    </interval>
</meandata>
