<?xml version="1.0" encoding="UTF-8"?>

<!-- generated on Fri Apr 10 20:50:39 2020 by SUMO Version 0.32.0
<?xml version="1.0" encoding="UTF-8"?>

<configuration xmlns:xsi="http://www.w3.org/2001/XMLSchema-instance" xsi:noNamespaceSchemaLocation="http://sumo.dlr.de/xsd/sumoConfiguration.xsd">

    <input>
        <net-file value="base.net.xml"/>
        <route-files value="base.rou.xml"/>
        <additional-files value="additional.xml"/>
    </input>

    <time>
        <begin value="0"/>
        <end value="50000"/>
    </time>

    <random_number>
        <seed value="70866"/>
    </random_number>

</configuration>
-->

<meandata xmlns:xsi="http://www.w3.org/2001/XMLSchema-instance" xsi:noNamespaceSchemaLocation="http://sumo.dlr.de/xsd/meandata_file.xsd">
    <interval begin="0.00" end="50000.00" id="mid">
        <edge id="1">
            <lane id="1_0" sampledSeconds="1053594.27" CO_abs="76807489.623659" CO2_abs="1575078000.885173" HC_abs="386288.398799" PMx_abs="34381.507568" NOx_abs="696240.600761" fuel_abs="677092.607803" electricity_abs="0"
            CO_normed="27650.696265" CO2_normed="567028.080319" HC_normed="139.063824" PMx_normed="12.377343" NOx_normed="250.646616" fuel_normed="243.753339" electricity_normed="0"
            traveltime="131.07" CO_perVeh="9554.941563" CO2_perVeh="195941.545932" HC_perVeh="48.054729" PMx_perVeh="4.277100" NOx_perVeh="86.613145" fuel_perVeh="84.231113" electricity_perVeh="0"/>
            <lane id="1_1" sampledSeconds="1050447.81" CO_abs="75752083.867736" CO2_abs="1552540043.991342" HC_abs="380927.233857" PMx_abs="33754.260882" NOx_abs="685737.074877" fuel_abs="667404.227736" electricity_abs="0"
            CO_normed="27270.750192" CO2_normed="558914.415837" HC_normed="137.133804" PMx_normed="12.151534" NOx_normed="246.865347" fuel_normed="240.265522" electricity_normed="0"
            traveltime="130.65" CO_perVeh="9421.602144" CO2_perVeh="193095.870899" HC_perVeh="47.377506" PMx_perVeh="4.198158" NOx_perVeh="85.287976" fuel_perVeh="83.007843" electricity_perVeh="0"/>
        </edge>
        <edge id="2">
            <lane id="2_0" sampledSeconds="121883.98" CO_abs="3868548.682321" CO2_abs="245476853.168495" HC_abs="23298.591820" PMx_abs="3915.109609" NOx_abs="96305.507793" fuel_abs="105520.857509" electricity_abs="0"
            CO_normed="279.373626" CO2_normed="17727.515976" HC_normed="1.682546" PMx_normed="0.282736" NOx_normed="6.954861" fuel_normed="7.620363" electricity_normed="0"
            traveltime="96.95" CO_perVeh="3077.271301" CO2_perVeh="195266.736290" HC_perVeh="18.533071" PMx_perVeh="3.114309" NOx_perVeh="76.607069" fuel_perVeh="83.937500" electricity_perVeh="0"/>
            <lane id="2_1" sampledSeconds="5455789.66" CO_abs="397908635.939420" CO2_abs="7680374922.625694" HC_abs="1990005.834374" PMx_abs="170692.909528" NOx_abs="3411093.608736" fuel_abs="3301645.923730" electricity_abs="0"
            CO_normed="28735.628674" CO2_normed="554650.947271" HC_normed="143.711555" PMx_normed="12.326870" NOx_normed="246.337753" fuel_normed="238.433808" electricity_normed="0"
            traveltime="804.74" CO_perVeh="58692.142733" CO2_perVeh="1132867.247625" HC_perVeh="293.528956" PMx_perVeh="25.177470" NOx_perVeh="503.141613" fuel_perVeh="486.997909" electricity_perVeh="0"/>
            <lane id="2_2" sampledSeconds="5251232.76" CO_abs="372295881.308401" CO2_abs="7620753320.297359" HC_abs="1871849.792756" PMx_abs="165496.893437" NOx_abs="3365425.198936" fuel_abs="3276001.774274" electricity_abs="0"
            CO_normed="26885.961338" CO2_normed="550345.274886" HC_normed="135.178721" PMx_normed="11.951631" NOx_normed="243.039734" fuel_normed="236.581873" electricity_normed="0"
            traveltime="656.27" CO_perVeh="46527.778050" CO2_perVeh="952405.698968" HC_perVeh="233.934932" PMx_perVeh="20.683019" NOx_perVeh="420.594921" fuel_perVeh="409.419204" electricity_perVeh="0"/>
        </edge>
        <edge id="3">
            <lane id="3_0" sampledSeconds="548668.54" CO_abs="38320409.712763" CO2_abs="827500231.336449" HC_abs="193729.133784" PMx_abs="17972.904126" NOx_abs="365725.194605" fuel_abs="355723.133558" electricity_abs="0"
            CO_normed="27590.694993" CO2_normed="595800.166562" HC_normed="139.484976" PMx_normed="12.940491" NOx_normed="263.322140" fuel_normed="256.120656" electricity_normed="0"
            traveltime="65.94" CO_perVeh="4605.225352" CO2_perVeh="99446.354379" HC_perVeh="23.281753" PMx_perVeh="2.159927" NOx_perVeh="43.951694" fuel_perVeh="42.749678" electricity_perVeh="0"/>
            <lane id="3_1" sampledSeconds="548759.52" CO_abs="38231514.493421" CO2_abs="825437469.699723" HC_abs="193276.745573" PMx_abs="17930.808990" NOx_abs="364829.013374" fuel_abs="354836.401976" electricity_abs="0"
            CO_normed="27526.690435" CO2_normed="594314.978184" HC_normed="139.159257" PMx_normed="12.910182" NOx_normed="262.676890" fuel_normed="255.482209" electricity_normed="0"
            traveltime="66.04" CO_perVeh="4600.768538" CO2_perVeh="99332.887829" HC_perVeh="23.258863" PMx_perVeh="2.157788" NOx_perVeh="43.903410" fuel_perVeh="42.700902" electricity_perVeh="0"/>
        </edge>
        <edge id="4">
            <lane id="4_0" sampledSeconds="91041.90" CO_abs="7734023.761980" CO2_abs="412081234.949307" HC_abs="44963.591789" PMx_abs="7917.316045" NOx_abs="173564.534835" fuel_abs="177136.215555" electricity_abs="0"
            CO_normed="5568.497109" CO2_normed="296698.489164" HC_normed="32.373786" PMx_normed="5.700468" NOx_normed="124.966465" fuel_normed="127.538075" electricity_normed="0"
            traveltime="10.09" CO_perVeh="857.255178" CO2_perVeh="45675.935745" HC_perVeh="4.983857" PMx_perVeh="0.877572" NOx_perVeh="19.238252" fuel_perVeh="19.634144" electricity_perVeh="0"/>
            <lane id="4_1" sampledSeconds="78223.96" CO_abs="6956788.053322" CO2_abs="357524530.617188" HC_abs="40134.920075" PMx_abs="6918.705370" NOx_abs="151057.194344" fuel_abs="153684.726023" electricity_abs="0"
            CO_normed="5008.887398" CO2_normed="257417.662044" HC_normed="28.897142" PMx_normed="4.981468" NOx_normed="108.761180" fuel_normed="110.653003" electricity_normed="0"
            traveltime="10.45" CO_perVeh="929.650400" CO2_perVeh="47776.764266" HC_perVeh="5.363315" PMx_perVeh="0.924561" NOx_perVeh="20.186095" fuel_perVeh="20.537217" electricity_perVeh="0"/>
        </edge>
    </interval>
</meandata>
