<?xml version="1.0" encoding="UTF-8"?>

<!-- generated on Wed Apr  8 20:47:00 2020 by SUMO Version 0.32.0
<?xml version="1.0" encoding="UTF-8"?>

<configuration xmlns:xsi="http://www.w3.org/2001/XMLSchema-instance" xsi:noNamespaceSchemaLocation="http://sumo.dlr.de/xsd/sumoConfiguration.xsd">

    <input>
        <net-file value="base.net.xml"/>
        <route-files value="base.rou.xml"/>
        <additional-files value="additional.xml"/>
    </input>

    <time>
        <begin value="0"/>
        <end value="50000"/>
    </time>

</configuration>
-->

<meandata xmlns:xsi="http://www.w3.org/2001/XMLSchema-instance" xsi:noNamespaceSchemaLocation="http://sumo.dlr.de/xsd/meandata_file.xsd">
    <interval begin="0.00" end="50000.00" id="mid">
        <edge id="1">
            <lane id="1_0" sampledSeconds="1050516.04" CO_abs="76192637.525048" CO2_abs="1591281625.101910" HC_abs="383905.286005" PMx_abs="34729.511767" NOx_abs="703438.196910" fuel_abs="684057.000936" electricity_abs="0"
            CO_normed="27429.349509" CO2_normed="572861.385037" HC_normed="138.205903" PMx_normed="12.502624" NOx_normed="253.237751" fuel_normed="246.260520" electricity_normed="0"
            traveltime="129.78" CO_perVeh="9412.538193" CO2_perVeh="196580.661306" HC_perVeh="47.426146" PMx_perVeh="4.290347" NOx_perVeh="86.899983" fuel_perVeh="84.505706" electricity_perVeh="0"/>
            <lane id="1_1" sampledSeconds="1044734.85" CO_abs="75320852.334784" CO2_abs="1549720004.651638" HC_abs="378900.514070" PMx_abs="33657.620411" NOx_abs="684234.258975" fuel_abs="666191.757962" electricity_abs="0"
            CO_normed="27115.506841" CO2_normed="557899.201675" HC_normed="136.404185" PMx_normed="12.116743" NOx_normed="246.324333" fuel_normed="239.829033" electricity_normed="0"
            traveltime="128.69" CO_perVeh="9277.926649" CO2_perVeh="190892.536189" HC_perVeh="46.672483" PMx_perVeh="4.145903" NOx_perVeh="84.283104" fuel_perVeh="82.060652" electricity_perVeh="0"/>
        </edge>
        <edge id="2">
            <lane id="2_0" sampledSeconds="5866283.32" CO_abs="453173171.278257" CO2_abs="7876355086.381989" HC_abs="2246767.692146" PMx_abs="184116.184575" NOx_abs="3543455.635020" fuel_abs="3385920.167718" electricity_abs="0"
            CO_normed="32726.648277" CO2_normed="568803.978154" HC_normed="162.254036" PMx_normed="13.296254" NOx_normed="255.896495" fuel_normed="244.519812" electricity_normed="0"
            traveltime="1440.96" CO_perVeh="111314.864281" CO2_perVeh="1934702.787003" HC_perVeh="551.883158" PMx_perVeh="45.225246" NOx_perVeh="870.394163" fuel_perVeh="831.698052" electricity_perVeh="0"/>
            <lane id="2_1" sampledSeconds="5885012.69" CO_abs="454766899.736934" CO2_abs="7902610505.308912" HC_abs="2254634.230514" PMx_abs="184733.411908" NOx_abs="3555238.205096" fuel_abs="3397207.027161" electricity_abs="0"
            CO_normed="32841.742007" CO2_normed="570700.056552" HC_normed="162.822131" PMx_normed="13.340828" NOx_normed="256.747393" fuel_normed="245.334911" electricity_normed="0"
            traveltime="1440.55" CO_perVeh="111319.215876" CO2_perVeh="1934424.878614" HC_perVeh="551.896180" PMx_perVeh="45.219603" NOx_perVeh="870.261951" fuel_perVeh="831.578601" electricity_perVeh="0"/>
            <lane id="2_2" sampledSeconds="5227275.93" CO_abs="370839625.842225" CO2_abs="7595560724.308950" HC_abs="1864635.597891" PMx_abs="164927.300941" NOx_abs="3354326.635296" fuel_abs="3265171.830027" electricity_abs="0"
            CO_normed="26780.795447" CO2_normed="548525.950000" HC_normed="134.657736" PMx_normed="11.910497" NOx_normed="242.238232" fuel_normed="235.799771" electricity_normed="0"
            traveltime="656.46" CO_perVeh="46571.609318" CO2_perVeh="953882.654265" HC_perVeh="234.168828" PMx_perVeh="20.712268" NOx_perVeh="421.250532" fuel_perVeh="410.054094" electricity_perVeh="0"/>
        </edge>
        <edge id="3">
            <lane id="3_0" sampledSeconds="548769.98" CO_abs="38307261.077134" CO2_abs="827153662.235571" HC_abs="193661.301254" PMx_abs="17966.260674" NOx_abs="365574.881681" fuel_abs="355574.152973" electricity_abs="0"
            CO_normed="27581.227976" CO2_normed="595550.636810" HC_normed="139.436137" PMx_normed="12.935708" NOx_normed="263.213915" fuel_normed="256.013390" electricity_normed="0"
            traveltime="65.95" CO_perVeh="4603.504925" CO2_perVeh="99401.676108" HC_perVeh="23.272892" PMx_perVeh="2.159062" NOx_perVeh="43.932292" fuel_perVeh="42.730472" electricity_perVeh="0"/>
            <lane id="3_1" sampledSeconds="548290.58" CO_abs="38221493.396782" CO2_abs="825801082.232705" HC_abs="193239.144715" PMx_abs="17932.853348" NOx_abs="364959.526615" fuel_abs="354992.695725" electricity_abs="0"
            CO_normed="27519.475246" CO2_normed="594576.779208" HC_normed="139.132184" PMx_normed="12.911654" NOx_normed="262.770859" fuel_normed="255.594741" electricity_normed="0"
            traveltime="65.83" CO_perVeh="4589.302964" CO2_perVeh="99154.978466" HC_perVeh="23.202468" PMx_perVeh="2.153220" NOx_perVeh="43.821151" fuel_perVeh="42.624421" electricity_perVeh="0"/>
        </edge>
        <edge id="4">
            <lane id="4_0" sampledSeconds="96171.03" CO_abs="8070598.606973" CO2_abs="434557938.265916" HC_abs="47028.525795" PMx_abs="8337.249150" NOx_abs="182911.697032" fuel_abs="186797.945035" electricity_abs="0"
            CO_normed="5810.830997" CO2_normed="312881.715551" HC_normed="33.860539" PMx_normed="6.002819" NOx_normed="131.696422" fuel_normed="134.494520" electricity_normed="0"
            traveltime="9.99" CO_perVeh="838.562704" CO2_perVeh="45152.050974" HC_perVeh="4.886424" PMx_perVeh="0.866269" NOx_perVeh="19.005149" fuel_perVeh="19.408943" electricity_perVeh="0"/>
            <lane id="4_1" sampledSeconds="73425.45" CO_abs="6653085.297241" CO2_abs="336124851.490132" HC_abs="38244.457195" PMx_abs="6520.038235" NOx_abs="142173.023643" fuel_abs="144485.972790" electricity_abs="0"
            CO_normed="4790.221414" CO2_normed="242009.893073" HC_normed="27.536009" PMx_normed="4.694428" NOx_normed="102.364577" fuel_normed="104.029900" electricity_normed="0"
            traveltime="10.65" CO_perVeh="964.765060" CO2_perVeh="48741.523357" HC_perVeh="5.545835" PMx_perVeh="0.945472" NOx_perVeh="20.616535" fuel_perVeh="20.951936" electricity_perVeh="0"/>
        </edge>
    </interval>
</meandata>
