<?xml version="1.0" encoding="UTF-8"?>

<!-- generated on Tue May 21 17:06:00 2019 by SUMO Version 0.32.0
<?xml version="1.0" encoding="UTF-8"?>

<configuration xmlns:xsi="http://www.w3.org/2001/XMLSchema-instance" xsi:noNamespaceSchemaLocation="http://sumo.dlr.de/xsd/sumoConfiguration.xsd">

    <input>
        <net-file value="base.net.xml"/>
        <route-files value="base.rou.xml"/>
        <additional-files value="5000/additional_5000.xml"/>
    </input>

    <time>
        <begin value="0"/>
        <end value="5000"/>
    </time>

</configuration>
-->

<meandata xmlns:xsi="http://www.w3.org/2001/XMLSchema-instance" xsi:noNamespaceSchemaLocation="http://sumo.dlr.de/xsd/meandata_file.xsd">
    <interval begin="0.00" end="5000.00" id="myEdges">
        <edge id="1" sampledSeconds="83779.13" traveltime="79.40" overlapTraveltime="82.00" density="84.41" occupancy="20.77" waitingTime="8966.88" speed="2.48" departed="1067" arrived="0" entered="0" left="1028" laneChangedFrom="140" laneChangedTo="140"/>
        <edge id="2" sampledSeconds="260159.07" traveltime="256.20" overlapTraveltime="262.63" density="200.00" occupancy="43.38" waitingTime="60661.00" speed="0.77" departed="0" arrived="0" entered="1028" left="955" laneChangedFrom="376" laneChangedTo="376"/>
        <edge id="3" sampledSeconds="40290.56" traveltime="42.02" overlapTraveltime="42.76" density="40.60" occupancy="9.66" waitingTime="0.00" speed="4.76" departed="0" arrived="947" entered="955" left="0" laneChangedFrom="127" laneChangedTo="127"/>
    </interval>
</meandata>
