<?xml version="1.0" encoding="UTF-8"?>

<!-- generated on Tue May 21 17:06:00 2019 by SUMO Version 0.32.0
<?xml version="1.0" encoding="UTF-8"?>

<configuration xmlns:xsi="http://www.w3.org/2001/XMLSchema-instance" xsi:noNamespaceSchemaLocation="http://sumo.dlr.de/xsd/sumoConfiguration.xsd">

    <input>
        <net-file value="base.net.xml"/>
        <route-files value="base.rou.xml"/>
        <additional-files value="5000/additional_5000.xml"/>
    </input>

    <time>
        <begin value="0"/>
        <end value="5000"/>
    </time>

</configuration>
-->

<meandata xmlns:xsi="http://www.w3.org/2001/XMLSchema-instance" xsi:noNamespaceSchemaLocation="http://sumo.dlr.de/xsd/meandata_file.xsd">
    <interval begin="0.00" end="5000.00" id="myLanes">
        <edge id="1">
            <lane id="1_0" sampledSeconds="41259.35" traveltime="76.81" overlapTraveltime="79.29" density="41.57" occupancy="20.46" waitingTime="4387.88" speed="2.57" departed="533" arrived="0" entered="0" left="530" laneChangedFrom="62" laneChangedTo="78"/>
            <lane id="1_1" sampledSeconds="42519.78" traveltime="82.09" overlapTraveltime="84.81" density="42.84" occupancy="21.09" waitingTime="4579.00" speed="2.40" departed="534" arrived="0" entered="0" left="498" laneChangedFrom="78" laneChangedTo="62"/>
        </edge>
        <edge id="2">
            <lane id="2_0" sampledSeconds="89411.24" traveltime="265.25" overlapTraveltime="271.86" density="90.77" occupancy="44.73" waitingTime="29728.00" speed="0.74" departed="0" arrived="0" entered="530" left="264" laneChangedFrom="242" laneChangedTo="1"/>
            <lane id="2_1" sampledSeconds="84693.17" traveltime="352.66" overlapTraveltime="358.90" density="85.98" occupancy="42.62" waitingTime="29549.00" speed="0.56" departed="0" arrived="0" entered="3" left="263" laneChangedFrom="46" laneChangedTo="330"/>
            <lane id="2_2" sampledSeconds="86054.66" traveltime="195.85" overlapTraveltime="202.14" density="87.37" occupancy="42.80" waitingTime="1384.00" speed="1.00" departed="0" arrived="0" entered="495" left="428" laneChangedFrom="88" laneChangedTo="45"/>
        </edge>
        <edge id="3">
            <lane id="3_0" sampledSeconds="23579.98" traveltime="41.79" overlapTraveltime="42.50" density="23.76" occupancy="11.32" waitingTime="0.00" speed="4.79" departed="0" arrived="613" entered="527" left="0" laneChangedFrom="18" laneChangedTo="109"/>
            <lane id="3_1" sampledSeconds="16710.58" traveltime="42.36" overlapTraveltime="43.14" density="16.84" occupancy="7.99" waitingTime="0.00" speed="4.72" departed="0" arrived="334" entered="428" left="0" laneChangedFrom="109" laneChangedTo="18"/>
        </edge>
    </interval>
</meandata>
