<?xml version="1.0" encoding="UTF-8"?>

<!-- generated on Thu Apr 16 21:54:22 2020 by SUMO Version 0.32.0
<?xml version="1.0" encoding="UTF-8"?>

<configuration xmlns:xsi="http://www.w3.org/2001/XMLSchema-instance" xsi:noNamespaceSchemaLocation="http://sumo.dlr.de/xsd/sumoConfiguration.xsd">

    <input>
        <net-file value="base.net.xml"/>
        <route-files value="base.rou.xml"/>
        <additional-files value="additional.xml"/>
    </input>

    <time>
        <begin value="0"/>
        <end value="50000"/>
    </time>

    <random_number>
        <seed value="27101"/>
    </random_number>

</configuration>
-->

<meandata xmlns:xsi="http://www.w3.org/2001/XMLSchema-instance" xsi:noNamespaceSchemaLocation="http://sumo.dlr.de/xsd/meandata_file.xsd">
    <interval begin="0.00" end="50000.00" id="mid">
        <edge id="1">
            <lane id="1_0" sampledSeconds="983986.36" CO_abs="89343021.318297" CO2_abs="2528308415.168769" HC_abs="466337.392669" PMx_abs="54502.698347" NOx_abs="1116819.638499" fuel_abs="1086837.753599" electricity_abs="0"
            CO_normed="32163.487675" CO2_normed="910191.029461" HC_normed="167.881461" PMx_normed="19.620971" NOx_normed="402.055070" fuel_normed="391.261591" electricity_normed="0"
            traveltime="95.35" CO_perVeh="8657.120684" CO2_perVeh="244986.913972" HC_perVeh="45.186955" PMx_perVeh="5.281178" NOx_perVeh="108.217097" fuel_perVeh="105.311925" electricity_perVeh="0"/>
            <lane id="1_1" sampledSeconds="957813.77" CO_abs="87946714.605394" CO2_abs="2611750915.611357" HC_abs="462078.085395" PMx_abs="56425.757537" NOx_abs="1155962.707624" fuel_abs="1122702.915001" electricity_abs="0"
            CO_normed="31660.817258" CO2_normed="940230.329620" HC_normed="166.348111" PMx_normed="20.313273" NOx_normed="416.146575" fuel_normed="404.173049" electricity_normed="0"
            traveltime="93.24" CO_perVeh="8560.911645" CO2_perVeh="254233.133409" HC_perVeh="44.979618" PMx_perVeh="5.492598" NOx_perVeh="112.523755" fuel_perVeh="109.286180" electricity_perVeh="0"/>
        </edge>
        <edge id="2">
            <lane id="2_0" sampledSeconds="474463.39" CO_abs="19295988.138957" CO2_abs="786099961.227232" HC_abs="104450.006000" PMx_abs="12740.959243" NOx_abs="310872.320938" fuel_abs="337918.707545" electricity_abs="0"
            CO_normed="1393.491621" CO2_normed="56769.505726" HC_normed="7.543030" PMx_normed="0.920109" NOx_normed="22.450158" fuel_normed="24.403357" electricity_normed="0"
            traveltime="117.46" CO_perVeh="4777.012091" CO2_perVeh="194610.868962" HC_perVeh="25.858170" PMx_perVeh="3.154216" NOx_perVeh="76.961119" fuel_perVeh="83.656859" electricity_perVeh="0"/>
            <lane id="2_1" sampledSeconds="5698455.16" CO_abs="528870620.931753" CO2_abs="11857834636.538496" HC_abs="2686594.240178" PMx_abs="268179.343202" NOx_abs="5304360.778784" fuel_abs="5097374.702549" electricity_abs="0"
            CO_normed="38193.264501" CO2_normed="856333.093110" HC_normed="194.016836" PMx_normed="19.367014" NOx_normed="383.063166" fuel_normed="368.115325" electricity_normed="0"
            traveltime="903.53" CO_perVeh="83856.404104" CO2_perVeh="1880148.629400" HC_perVeh="425.979669" PMx_perVeh="42.521847" NOx_perVeh="841.046190" fuel_perVeh="808.226995" electricity_perVeh="0"/>
            <lane id="2_2" sampledSeconds="4845916.67" CO_abs="439679233.674143" CO2_abs="12938362237.979166" HC_abs="2307054.444738" PMx_abs="278986.302534" NOx_abs="5723772.091864" fuel_abs="5561766.171948" electricity_abs="0"
            CO_normed="31752.161308" CO2_normed="934365.176664" HC_normed="166.607743" PMx_normed="20.147456" NOx_normed="413.351646" fuel_normed="401.652121" electricity_normed="0"
            traveltime="474.59" CO_perVeh="43060.318009" CO2_perVeh="1267128.283093" HC_perVeh="225.943120" PMx_perVeh="27.322734" NOx_perVeh="560.561945" fuel_perVeh="544.695773" electricity_perVeh="0"/>
        </edge>
        <edge id="3">
            <lane id="3_0" sampledSeconds="479475.65" CO_abs="44455548.025258" CO2_abs="1355068904.470650" HC_abs="234436.035437" PMx_abs="29315.423947" NOx_abs="600217.863767" fuel_abs="582496.960523" electricity_abs="0"
            CO_normed="32007.994578" CO2_normed="975649.611219" HC_normed="168.793946" PMx_normed="21.107105" NOx_normed="432.156862" fuel_normed="419.397812" electricity_normed="0"
            traveltime="45.39" CO_perVeh="4208.481016" CO2_perVeh="128280.541206" HC_perVeh="22.193397" PMx_perVeh="2.775208" NOx_perVeh="56.820928" fuel_perVeh="55.143340" electricity_perVeh="0"/>
            <lane id="3_1" sampledSeconds="473604.45" CO_abs="43677161.314958" CO2_abs="1340710771.150193" HC_abs="230558.014963" PMx_abs="28986.198446" NOx_abs="593757.744720" fuel_abs="576324.662086" electricity_abs="0"
            CO_normed="31447.556147" CO2_normed="965311.755228" HC_normed="166.001771" PMx_normed="20.870063" NOx_normed="427.505576" fuel_normed="414.953757" electricity_normed="0"
            traveltime="45.02" CO_perVeh="4152.283943" CO2_perVeh="127458.187278" HC_perVeh="21.918603" PMx_perVeh="2.755649" NOx_perVeh="56.447138" fuel_perVeh="54.789816" electricity_perVeh="0"/>
        </edge>
        <edge id="4">
            <lane id="4_0" sampledSeconds="94505.64" CO_abs="7617635.917342" CO2_abs="510428621.065498" HC_abs="45786.408501" PMx_abs="9166.511384" NOx_abs="208876.289235" fuel_abs="219410.905808" electricity_abs="0"
            CO_normed="5484.697860" CO2_normed="367508.607167" HC_normed="32.966214" PMx_normed="6.599888" NOx_normed="150.390928" fuel_normed="157.975852" electricity_normed="0"
            traveltime="8.68" CO_perVeh="699.361942" CO2_perVeh="46861.566461" HC_perVeh="4.203571" PMx_perVeh="0.841562" NOx_perVeh="19.176570" fuel_perVeh="20.143735" electricity_perVeh="0"/>
            <lane id="4_1" sampledSeconds="89183.48" CO_abs="7374662.033662" CO2_abs="487665599.052989" HC_abs="44165.265859" PMx_abs="8813.438560" NOx_abs="200006.819025" fuel_abs="209626.063505" electricity_abs="0"
            CO_normed="5309.756664" CO2_normed="351119.231318" HC_normed="31.798991" PMx_normed="6.345676" NOx_normed="144.004910" fuel_normed="150.930766" electricity_normed="0"
            traveltime="8.72" CO_perVeh="721.241418" CO2_perVeh="47693.660637" HC_perVeh="4.319360" PMx_perVeh="0.861954" NOx_perVeh="19.560653" fuel_perVeh="20.501414" electricity_perVeh="0"/>
        </edge>
    </interval>
</meandata>
