<?xml version="1.0" encoding="UTF-8"?>

<!-- generated on Thu Apr 16 21:58:44 2020 by SUMO Version 0.32.0
<?xml version="1.0" encoding="UTF-8"?>

<configuration xmlns:xsi="http://www.w3.org/2001/XMLSchema-instance" xsi:noNamespaceSchemaLocation="http://sumo.dlr.de/xsd/sumoConfiguration.xsd">

    <input>
        <net-file value="base.net.xml"/>
        <route-files value="base.rou.xml"/>
        <additional-files value="additional.xml"/>
    </input>

    <time>
        <begin value="0"/>
        <end value="50000"/>
    </time>

    <random_number>
        <seed value="42069"/>
    </random_number>

</configuration>
-->

<meandata xmlns:xsi="http://www.w3.org/2001/XMLSchema-instance" xsi:noNamespaceSchemaLocation="http://sumo.dlr.de/xsd/meandata_file.xsd">
    <interval begin="0.00" end="50000.00" id="mid">
        <edge id="1">
            <lane id="1_0" sampledSeconds="984501.22" CO_abs="88673100.562738" CO2_abs="2507670999.282323" HC_abs="462786.779126" PMx_abs="53992.938061" NOx_abs="1107285.130235" fuel_abs="1077966.547945" electricity_abs="0"
            CO_normed="31922.316203" CO2_normed="902761.559742" HC_normed="166.603240" PMx_normed="19.437458" NOx_normed="398.622647" fuel_normed="388.067957" electricity_normed="0"
            traveltime="95.27" CO_perVeh="8581.073544" CO2_perVeh="242672.345181" HC_perVeh="44.784804" PMx_perVeh="5.225005" NOx_perVeh="107.154200" fuel_perVeh="104.316982" electricity_perVeh="0"/>
            <lane id="1_1" sampledSeconds="953088.94" CO_abs="87540004.698963" CO2_abs="2606046873.454387" HC_abs="460097.957730" PMx_abs="56301.139847" NOx_abs="1153417.124435" fuel_abs="1120250.760915" electricity_abs="0"
            CO_normed="31514.401692" CO2_normed="938176.874444" HC_normed="165.635265" PMx_normed="20.268410" NOx_normed="415.230165" fuel_normed="403.290274" electricity_normed="0"
            traveltime="92.70" CO_perVeh="8514.420543" CO2_perVeh="253472.445098" HC_perVeh="44.750597" PMx_perVeh="5.476029" NOx_perVeh="112.185035" fuel_perVeh="108.959168" electricity_perVeh="0"/>
        </edge>
        <edge id="2">
            <lane id="2_0" sampledSeconds="1279053.31" CO_abs="89436152.050449" CO2_abs="2372836271.248881" HC_abs="460984.282406" PMx_abs="47842.215588" NOx_abs="1013516.983570" fuel_abs="1020016.254994" electricity_abs="0"
            CO_normed="6458.779285" CO2_normed="171358.286389" HC_normed="33.290741" PMx_normed="3.455005" NOx_normed="73.192801" fuel_normed="73.662157" electricity_normed="0"
            traveltime="254.65" CO_perVeh="17806.040017" CO2_perVeh="472413.186736" HC_perVeh="91.778374" PMx_perVeh="9.525012" NOx_perVeh="201.783323" fuel_perVeh="203.077277" electricity_perVeh="0"/>
            <lane id="2_1" sampledSeconds="5895867.30" CO_abs="533187644.635690" CO2_abs="11380210191.785086" HC_abs="2694893.949423" PMx_abs="260339.296856" NOx_abs="5105224.747528" fuel_abs="4892074.253728" electricity_abs="0"
            CO_normed="38505.025490" CO2_normed="821840.655776" HC_normed="194.616213" PMx_normed="18.800832" NOx_normed="368.682229" fuel_normed="353.289214" electricity_normed="0"
            traveltime="1101.80" CO_perVeh="99640.508071" CO2_perVeh="2126699.552915" HC_perVeh="503.613700" PMx_perVeh="48.651427" NOx_perVeh="954.049091" fuel_perVeh="914.216166" electricity_perVeh="0"/>
            <lane id="2_2" sampledSeconds="4794623.40" CO_abs="435883183.652526" CO2_abs="12913357904.365616" HC_abs="2289283.202007" PMx_abs="278555.536032" NOx_abs="5713542.655824" fuel_abs="5551014.949496" electricity_abs="0"
            CO_normed="31478.023293" CO2_normed="932559.447457" HC_normed="165.324364" PMx_normed="20.116348" NOx_normed="412.612910" fuel_normed="400.875703" electricity_normed="0"
            traveltime="470.00" CO_perVeh="42728.392695" CO2_perVeh="1265859.863921" HC_perVeh="224.411942" PMx_perVeh="27.306009" NOx_perVeh="560.082388" fuel_perVeh="544.150257" electricity_perVeh="0"/>
        </edge>
        <edge id="3">
            <lane id="3_0" sampledSeconds="489241.40" CO_abs="45366675.915945" CO2_abs="1365866679.619212" HC_abs="238820.663508" PMx_abs="29535.243559" NOx_abs="604881.714722" fuel_abs="587139.048948" electricity_abs="0"
            CO_normed="32664.006659" CO2_normed="983424.009326" HC_normed="171.950878" PMx_normed="21.265375" NOx_normed="435.514835" fuel_normed="422.740115" electricity_normed="0"
            traveltime="46.05" CO_perVeh="4270.508022" CO2_perVeh="128573.330428" HC_perVeh="22.480941" PMx_perVeh="2.780245" NOx_perVeh="56.939420" fuel_perVeh="55.269247" electricity_perVeh="0"/>
            <lane id="3_1" sampledSeconds="474054.24" CO_abs="43698503.820912" CO2_abs="1340499363.486488" HC_abs="230648.908086" PMx_abs="28979.327558" NOx_abs="593648.223586" fuel_abs="576233.813104" electricity_abs="0"
            CO_normed="31462.922751" CO2_normed="965159.541710" HC_normed="166.067214" PMx_normed="20.865116" NOx_normed="427.426721" fuel_normed="414.888345" electricity_normed="0"
            traveltime="45.07" CO_perVeh="4154.892897" CO2_perVeh="127455.880559" HC_perVeh="21.930305" PMx_perVeh="2.755380" NOx_perVeh="56.444605" fuel_perVeh="54.788827" electricity_perVeh="0"/>
        </edge>
        <edge id="4">
            <lane id="4_0" sampledSeconds="94538.43" CO_abs="7617792.830542" CO2_abs="511055527.511980" HC_abs="45802.068945" PMx_abs="9176.385729" NOx_abs="209119.827052" fuel_abs="219680.380330" electricity_abs="0"
            CO_normed="5484.810838" CO2_normed="367959.979809" HC_normed="32.977490" PMx_normed="6.606998" NOx_normed="150.566275" fuel_normed="158.169874" electricity_normed="0"
            traveltime="8.67" CO_perVeh="698.359469" CO2_perVeh="46850.902208" HC_perVeh="4.198895" PMx_perVeh="0.841243" NOx_perVeh="19.171014" fuel_perVeh="20.139150" electricity_perVeh="0"/>
            <lane id="4_1" sampledSeconds="89310.92" CO_abs="7382854.295985" CO2_abs="488391797.983466" HC_abs="44216.026112" PMx_abs="8825.711635" NOx_abs="200295.146623" fuel_abs="209938.223490" electricity_abs="0"
            CO_normed="5315.655093" CO2_normed="351642.094548" HC_normed="31.835539" PMx_normed="6.354512" NOx_normed="144.212506" fuel_normed="151.155521" electricity_normed="0"
            traveltime="8.72" CO_perVeh="720.764304" CO2_perVeh="47680.119381" HC_perVeh="4.316668" PMx_perVeh="0.861626" NOx_perVeh="19.554171" fuel_perVeh="20.495593" electricity_perVeh="0"/>
        </edge>
    </interval>
</meandata>
