<?xml version="1.0" encoding="UTF-8"?>

<!-- generated on Thu Apr 16 21:50:11 2020 by SUMO Version 0.32.0
<?xml version="1.0" encoding="UTF-8"?>

<configuration xmlns:xsi="http://www.w3.org/2001/XMLSchema-instance" xsi:noNamespaceSchemaLocation="http://sumo.dlr.de/xsd/sumoConfiguration.xsd">

    <input>
        <net-file value="base.net.xml"/>
        <route-files value="base.rou.xml"/>
        <additional-files value="additional.xml"/>
    </input>

    <time>
        <begin value="0"/>
        <end value="50000"/>
    </time>

    <random_number>
        <seed value="50663"/>
    </random_number>

</configuration>
-->

<meandata xmlns:xsi="http://www.w3.org/2001/XMLSchema-instance" xsi:noNamespaceSchemaLocation="http://sumo.dlr.de/xsd/meandata_file.xsd">
    <interval begin="0.00" end="50000.00" id="mid">
        <edge id="1">
            <lane id="1_0" sampledSeconds="983957.00" CO_abs="89725063.163756" CO2_abs="2540281009.011454" HC_abs="468364.824250" PMx_abs="54790.039448" NOx_abs="1122354.429414" fuel_abs="1091984.297455" electricity_abs="0"
            CO_normed="32301.022739" CO2_normed="914501.163244" HC_normed="168.611337" PMx_normed="19.724414" NOx_normed="404.047595" fuel_normed="393.114347" electricity_normed="0"
            traveltime="95.37" CO_perVeh="8696.835112" CO2_perVeh="246223.343790" HC_perVeh="45.397479" PMx_perVeh="5.310667" NOx_perVeh="108.787122" fuel_perVeh="105.843418" electricity_perVeh="0"/>
            <lane id="1_1" sampledSeconds="955295.06" CO_abs="87821384.692950" CO2_abs="2610486410.787486" HC_abs="461481.215684" PMx_abs="56403.012100" NOx_abs="1155415.514829" fuel_abs="1122159.271352" electricity_abs="0"
            CO_normed="31615.698489" CO2_normed="939775.107883" HC_normed="166.133238" PMx_normed="20.305084" NOx_normed="415.949585" fuel_normed="403.977338" electricity_normed="0"
            traveltime="93.06" CO_perVeh="8554.766393" CO2_perVeh="254290.017122" HC_perVeh="44.953334" PMx_perVeh="5.494272" NOx_perVeh="112.550148" fuel_perVeh="109.310625" electricity_perVeh="0"/>
        </edge>
        <edge id="2">
            <lane id="2_0" sampledSeconds="387871.71" CO_abs="13898072.712898" CO2_abs="614926490.073189" HC_abs="76040.938559" PMx_abs="9653.735257" NOx_abs="240588.085206" fuel_abs="264336.296503" electricity_abs="0"
            CO_normed="1003.672252" CO2_normed="44407.931079" HC_normed="5.491422" PMx_normed="0.697160" NOx_normed="17.374466" fuel_normed="19.089482" electricity_normed="0"
            traveltime="107.16" CO_perVeh="3839.852965" CO2_perVeh="169896.024771" HC_perVeh="21.009102" PMx_perVeh="2.667199" NOx_perVeh="66.471294" fuel_perVeh="73.032609" electricity_perVeh="0"/>
            <lane id="2_1" sampledSeconds="5616697.56" CO_abs="522876508.304586" CO2_abs="12005783091.118778" HC_abs="2662855.829263" PMx_abs="270114.967929" NOx_abs="5363817.741903" fuel_abs="5160965.026836" electricity_abs="0"
            CO_normed="37760.389767" CO2_normed="867017.434865" HC_normed="192.302527" PMx_normed="19.506798" NOx_normed="387.356948" fuel_normed="372.707605" electricity_normed="0"
            traveltime="836.15" CO_perVeh="77839.931338" CO2_perVeh="1787284.983420" HC_perVeh="396.415811" PMx_perVeh="40.211657" NOx_perVeh="798.504423" fuel_perVeh="768.306009" electricity_perVeh="0"/>
            <lane id="2_2" sampledSeconds="4818748.16" CO_abs="437629997.648018" CO2_abs="12921815847.157042" HC_abs="2297380.014484" PMx_abs="278657.290754" NOx_abs="5716673.956912" fuel_abs="5554652.115946" electricity_abs="0"
            CO_normed="31604.172348" CO2_normed="933170.251751" HC_normed="165.909088" PMx_normed="20.123696" NOx_normed="412.839042" fuel_normed="401.138367" electricity_normed="0"
            traveltime="472.10" CO_perVeh="42875.463147" CO2_perVeh="1265975.463568" HC_perVeh="225.078794" PMx_perVeh="27.300597" NOx_perVeh="560.073681" fuel_perVeh="544.200085" electricity_perVeh="0"/>
        </edge>
        <edge id="3">
            <lane id="3_0" sampledSeconds="477829.68" CO_abs="44264927.792106" CO2_abs="1352394080.384943" HC_abs="233508.118459" PMx_abs="29258.616072" NOx_abs="599046.397513" fuel_abs="581347.056426" electricity_abs="0"
            CO_normed="31870.748010" CO2_normed="973723.737877" HC_normed="168.125845" PMx_normed="21.066204" NOx_normed="431.313406" fuel_normed="418.569881" electricity_normed="0"
            traveltime="45.29" CO_perVeh="4195.619972" CO2_perVeh="128185.719403" HC_perVeh="22.132902" PMx_perVeh="2.773257" NOx_perVeh="56.780190" fuel_perVeh="55.102571" electricity_perVeh="0"/>
            <lane id="3_1" sampledSeconds="472826.76" CO_abs="43624133.147992" CO2_abs="1340391334.570606" HC_abs="230310.983623" PMx_abs="28982.913549" NOx_abs="593641.238953" fuel_abs="576187.305308" electricity_abs="0"
            CO_normed="31409.375867" CO2_normed="965081.760891" HC_normed="165.823908" PMx_normed="20.867698" NOx_normed="427.421692" fuel_normed="414.854860" electricity_normed="0"
            traveltime="44.97" CO_perVeh="4148.812476" CO2_perVeh="127476.052591" HC_perVeh="21.903406" PMx_perVeh="2.756380" NOx_perVeh="56.457424" fuel_perVeh="54.797492" electricity_perVeh="0"/>
        </edge>
        <edge id="4">
            <lane id="4_0" sampledSeconds="94374.84" CO_abs="7614256.576933" CO2_abs="509929622.773090" HC_abs="45757.625835" PMx_abs="9159.559573" NOx_abs="208687.654765" fuel_abs="219196.407918" electricity_abs="0"
            CO_normed="5482.264735" CO2_normed="367149.328397" HC_normed="32.945491" PMx_normed="6.594883" NOx_normed="150.255111" fuel_normed="157.821414" electricity_normed="0"
            traveltime="8.68" CO_perVeh="700.157251" CO2_perVeh="46889.794052" HC_perVeh="4.207572" PMx_perVeh="0.842253" NOx_perVeh="19.189552" fuel_perVeh="20.155869" electricity_perVeh="0"/>
            <lane id="4_1" sampledSeconds="89174.45" CO_abs="7369622.821786" CO2_abs="487383440.833160" HC_abs="44136.546347" PMx_abs="8807.065774" NOx_abs="199882.002111" fuel_abs="209504.777536" electricity_abs="0"
            CO_normed="5306.128432" CO2_normed="350916.077400" HC_normed="31.778313" PMx_normed="6.341087" NOx_normed="143.915042" fuel_normed="150.843440" electricity_normed="0"
            traveltime="8.72" CO_perVeh="720.838922" CO2_perVeh="47672.040025" HC_perVeh="4.317092" PMx_perVeh="0.861438" NOx_perVeh="19.550896" fuel_perVeh="20.492120" electricity_perVeh="0"/>
        </edge>
    </interval>
</meandata>
