<?xml version="1.0" encoding="UTF-8"?>

<!-- generated on Fri Apr 10 19:55:31 2020 by SUMO Version 0.32.0
<?xml version="1.0" encoding="UTF-8"?>

<configuration xmlns:xsi="http://www.w3.org/2001/XMLSchema-instance" xsi:noNamespaceSchemaLocation="http://sumo.dlr.de/xsd/sumoConfiguration.xsd">

    <input>
        <net-file value="base.net.xml"/>
        <route-files value="base.rou.xml"/>
        <additional-files value="additional.xml"/>
    </input>

    <time>
        <begin value="0"/>
        <end value="50000"/>
    </time>

    <random_number>
        <seed value="48834"/>
    </random_number>

</configuration>
-->

<meandata xmlns:xsi="http://www.w3.org/2001/XMLSchema-instance" xsi:noNamespaceSchemaLocation="http://sumo.dlr.de/xsd/meandata_file.xsd">
    <interval begin="0.00" end="50000.00" id="mid">
        <edge id="1">
            <lane id="1_0" sampledSeconds="1055036.35" CO_abs="77501786.960986" CO2_abs="1609811916.651305" HC_abs="390335.705270" PMx_abs="35354.111486" NOx_abs="712421.630670" fuel_abs="692022.856318" electricity_abs="0"
            CO_normed="27900.643306" CO2_normed="579532.289994" HC_normed="140.520854" PMx_normed="12.727480" NOx_normed="256.471787" fuel_normed="249.128228" electricity_normed="0"
            traveltime="131.82" CO_perVeh="9683.312314" CO2_perVeh="201134.866275" HC_perVeh="48.769747" PMx_perVeh="4.417252" NOx_perVeh="89.012156" fuel_perVeh="86.463470" electricity_perVeh="0"/>
            <lane id="1_1" sampledSeconds="1045668.60" CO_abs="75524188.006423" CO2_abs="1552772904.737082" HC_abs="379896.592572" PMx_abs="33731.299778" NOx_abs="685627.323525" fuel_abs="667504.170901" electricity_abs="0"
            CO_normed="27188.707682" CO2_normed="558998.245705" HC_normed="136.762773" PMx_normed="12.143268" NOx_normed="246.825836" fuel_normed="240.301502" electricity_normed="0"
            traveltime="129.05" CO_perVeh="9320.401145" CO2_perVeh="191626.904463" HC_perVeh="46.882843" PMx_perVeh="4.162762" NOx_perVeh="84.612915" fuel_perVeh="82.376346" electricity_perVeh="0"/>
        </edge>
        <edge id="2">
            <lane id="2_0" sampledSeconds="2140008.50" CO_abs="152380699.939301" CO2_abs="3034429405.145659" HC_abs="764433.493212" PMx_abs="67143.550152" NOx_abs="1335975.436028" fuel_abs="1304440.354137" electricity_abs="0"
            CO_normed="11004.423667" CO2_normed="219136.326149" HC_normed="55.204826" PMx_normed="4.848882" NOx_normed="96.479670" fuel_normed="94.202312" electricity_normed="0"
            traveltime="548.44" CO_perVeh="39052.106523" CO2_perVeh="777663.184472" HC_perVeh="195.908919" PMx_perVeh="17.207541" NOx_perVeh="342.383616" fuel_perVeh="334.301809" electricity_perVeh="0"/>
            <lane id="2_1" sampledSeconds="5886311.28" CO_abs="454225152.813497" CO2_abs="7910873022.976126" HC_abs="2252340.539447" PMx_abs="184691.679166" NOx_abs="3557745.914113" fuel_abs="3400758.408860" electricity_abs="0"
            CO_normed="32802.618859" CO2_normed="571296.747898" HC_normed="162.656488" PMx_normed="13.337814" NOx_normed="256.928491" fuel_normed="245.591380" electricity_normed="0"
            traveltime="1412.68" CO_perVeh="109011.580723" CO2_perVeh="1898566.752183" HC_perVeh="540.549551" PMx_perVeh="44.325004" NOx_perVeh="853.839783" fuel_perVeh="816.163631" electricity_perVeh="0"/>
            <lane id="2_2" sampledSeconds="5234095.21" CO_abs="371125958.379228" CO2_abs="7598338286.447274" HC_abs="1865998.010642" PMx_abs="164975.242707" NOx_abs="3355333.093553" fuel_abs="3266366.007899" electricity_abs="0"
            CO_normed="26801.473424" CO2_normed="548726.536233" HC_normed="134.756125" PMx_normed="11.913959" NOx_normed="242.310915" fuel_normed="235.886011" electricity_normed="0"
            traveltime="655.34" CO_perVeh="46467.457480" CO2_perVeh="951362.881723" HC_perVeh="233.635458" PMx_perVeh="20.656006" NOx_perVeh="420.110193" fuel_perVeh="408.970917" electricity_perVeh="0"/>
        </edge>
        <edge id="3">
            <lane id="3_0" sampledSeconds="548877.08" CO_abs="38269450.104615" CO2_abs="825765684.116532" HC_abs="193456.893884" PMx_abs="17939.931350" NOx_abs="364981.040179" fuel_abs="354977.510757" electricity_abs="0"
            CO_normed="27554.004075" CO2_normed="594551.292564" HC_normed="139.288964" PMx_normed="12.916751" NOx_normed="262.786349" fuel_normed="255.583808" electricity_normed="0"
            traveltime="66.05" CO_perVeh="4605.034413" CO2_perVeh="99365.927176" HC_perVeh="23.279029" PMx_perVeh="2.158745" NOx_perVeh="43.918850" fuel_perVeh="42.715107" electricity_perVeh="0"/>
            <lane id="3_1" sampledSeconds="548596.61" CO_abs="38208883.220255" CO2_abs="825946616.357316" HC_abs="193186.103274" PMx_abs="17938.191525" NOx_abs="365038.997186" fuel_abs="355055.237469" electricity_abs="0"
            CO_normed="27510.395919" CO2_normed="594681.563777" HC_normed="139.093994" PMx_normed="12.915498" NOx_normed="262.828078" fuel_normed="255.639771" electricity_normed="0"
            traveltime="65.97" CO_perVeh="4594.761182" CO2_perVeh="99323.171251" HC_perVeh="23.231352" PMx_perVeh="2.157135" NOx_perVeh="43.897305" fuel_perVeh="42.696721" electricity_perVeh="0"/>
        </edge>
        <edge id="4">
            <lane id="4_0" sampledSeconds="96546.91" CO_abs="8090357.867105" CO2_abs="436604807.536659" HC_abs="47165.945450" PMx_abs="8368.775871" NOx_abs="183709.912216" fuel_abs="187677.804488" electricity_abs="0"
            CO_normed="5825.057664" CO2_normed="314355.461426" HC_normed="33.959481" PMx_normed="6.025519" NOx_normed="132.271137" fuel_normed="135.128019" electricity_normed="0"
            traveltime="9.98" CO_perVeh="836.551286" CO2_perVeh="45145.384079" HC_perVeh="4.877007" PMx_perVeh="0.865340" NOx_perVeh="18.995793" fuel_perVeh="19.406077" electricity_perVeh="0"/>
            <lane id="4_1" sampledSeconds="72802.90" CO_abs="6604519.854641" CO2_abs="333098458.932748" HC_abs="37952.014657" PMx_abs="6463.381371" NOx_abs="140910.860127" fuel_abs="143185.059730" electricity_abs="0"
            CO_normed="4755.254295" CO2_normed="239830.890432" HC_normed="27.325451" PMx_normed="4.653635" NOx_normed="101.455819" fuel_normed="103.093243" electricity_normed="0"
            traveltime="10.66" CO_perVeh="967.316358" CO2_perVeh="48786.527288" HC_perVeh="5.558558" PMx_perVeh="0.946645" NOx_perVeh="20.638197" fuel_perVeh="20.971282" electricity_perVeh="0"/>
        </edge>
    </interval>
</meandata>
