<?xml version="1.0" encoding="UTF-8"?>

<!-- generated on Fri Apr 10 19:48:47 2020 by SUMO Version 0.32.0
<?xml version="1.0" encoding="UTF-8"?>

<configuration xmlns:xsi="http://www.w3.org/2001/XMLSchema-instance" xsi:noNamespaceSchemaLocation="http://sumo.dlr.de/xsd/sumoConfiguration.xsd">

    <input>
        <net-file value="base.net.xml"/>
        <route-files value="base.rou.xml"/>
        <additional-files value="additional.xml"/>
    </input>

    <time>
        <begin value="0"/>
        <end value="50000"/>
    </time>

    <random_number>
        <seed value="16356"/>
    </random_number>

</configuration>
-->

<meandata xmlns:xsi="http://www.w3.org/2001/XMLSchema-instance" xsi:noNamespaceSchemaLocation="http://sumo.dlr.de/xsd/meandata_file.xsd">
    <interval begin="0.00" end="50000.00" id="mid">
        <edge id="1">
            <lane id="1_0" sampledSeconds="1055556.72" CO_abs="77639176.391736" CO2_abs="1600262275.087044" HC_abs="390711.958236" PMx_abs="35105.860005" NOx_abs="708067.715937" fuel_abs="687918.231978" electricity_abs="0"
            CO_normed="27950.103501" CO2_normed="576094.419031" HC_normed="140.656305" PMx_normed="12.638110" NOx_normed="254.904378" fuel_normed="247.650564" electricity_normed="0"
            traveltime="131.85" CO_perVeh="9698.173029" CO2_perVeh="199894.192032" HC_perVeh="48.805157" PMx_perVeh="4.385192" NOx_perVeh="88.447142" fuel_perVeh="85.930201" electricity_perVeh="0"/>
            <lane id="1_1" sampledSeconds="1047230.61" CO_abs="75485966.568130" CO2_abs="1552386454.919498" HC_abs="379714.172103" PMx_abs="33723.728978" NOx_abs="685506.163368" fuel_abs="667338.021924" electricity_abs="0"
            CO_normed="27174.947965" CO2_normed="558859.123771" HC_normed="136.697102" PMx_normed="12.140542" NOx_normed="246.782219" fuel_normed="240.241688" electricity_normed="0"
            traveltime="129.29" CO_perVeh="9319.657499" CO2_perVeh="191660.923538" HC_perVeh="46.880317" PMx_perVeh="4.163603" NOx_perVeh="84.634045" fuel_perVeh="82.390967" electricity_perVeh="0"/>
        </edge>
        <edge id="2">
            <lane id="2_0" sampledSeconds="368091.34" CO_abs="15670746.612903" CO2_abs="657624993.475905" HC_abs="86600.486496" PMx_abs="11435.153503" NOx_abs="265344.661904" fuel_abs="282690.124887" electricity_abs="0"
            CO_normed="1131.688823" CO2_normed="47491.473952" HC_normed="6.253997" PMx_normed="0.825808" NOx_normed="19.162303" fuel_normed="20.414934" electricity_normed="0"
            traveltime="132.23" CO_perVeh="5629.379282" CO2_perVeh="236237.660222" HC_perVeh="31.109366" PMx_perVeh="4.107833" NOx_perVeh="95.319373" fuel_perVeh="101.550358" electricity_perVeh="0"/>
            <lane id="2_1" sampledSeconds="5705962.74" CO_abs="430171686.454654" CO2_abs="7799417666.386215" HC_abs="2139973.613893" PMx_abs="178430.308468" NOx_abs="3489356.448297" fuel_abs="3352835.449178" electricity_abs="0"
            CO_normed="31065.558099" CO2_normed="563247.815426" HC_normed="154.541725" PMx_normed="12.885639" NOx_normed="251.989633" fuel_normed="242.130544" electricity_normed="0"
            traveltime="1084.23" CO_perVeh="81739.579604" CO2_perVeh="1482015.533049" HC_perVeh="406.629606" PMx_perVeh="33.904645" NOx_perVeh="663.034175" fuel_perVeh="637.092976" electricity_perVeh="0"/>
            <lane id="2_2" sampledSeconds="5238916.74" CO_abs="371466650.233491" CO2_abs="7615407395.391752" HC_abs="1867949.162630" PMx_abs="165295.849867" NOx_abs="3362657.420560" fuel_abs="3273703.302424" electricity_abs="0"
            CO_normed="26826.077048" CO2_normed="549959.210099" HC_normed="134.897031" PMx_normed="11.937113" NOx_normed="242.839854" fuel_normed="236.415885" electricity_normed="0"
            traveltime="653.51" CO_perVeh="46337.416764" CO2_perVeh="949959.588796" HC_perVeh="233.011332" PMx_perVeh="20.619301" NOx_perVeh="419.463923" fuel_perVeh="408.367627" electricity_perVeh="0"/>
        </edge>
        <edge id="3">
            <lane id="3_0" sampledSeconds="548775.32" CO_abs="38322388.981133" CO2_abs="827066455.728127" HC_abs="193727.694288" PMx_abs="17964.736513" NOx_abs="365536.426101" fuel_abs="355536.680998" electricity_abs="0"
            CO_normed="27592.120066" CO2_normed="595487.848124" HC_normed="139.483940" PMx_normed="12.934610" NOx_normed="263.186227" fuel_normed="255.986410" electricity_normed="0"
            traveltime="65.98" CO_perVeh="4607.501226" CO2_perVeh="99438.208589" HC_perVeh="23.291883" PMx_perVeh="2.159900" NOx_perVeh="43.948448" fuel_perVeh="42.746179" electricity_perVeh="0"/>
            <lane id="3_1" sampledSeconds="548170.58" CO_abs="38240117.754704" CO2_abs="826746580.570810" HC_abs="193346.185672" PMx_abs="17951.093757" NOx_abs="365367.353448" fuel_abs="355399.124984" electricity_abs="0"
            CO_normed="27532.884783" CO2_normed="595257.538011" HC_normed="139.209254" PMx_normed="12.924788" NOx_normed="263.064494" fuel_normed="255.887370" electricity_normed="0"
            traveltime="65.76" CO_perVeh="4587.308773" CO2_perVeh="99177.044036" HC_perVeh="23.193931" PMx_perVeh="2.153425" NOx_perVeh="43.829699" fuel_perVeh="42.633904" electricity_perVeh="0"/>
        </edge>
        <edge id="4">
            <lane id="4_0" sampledSeconds="95336.09" CO_abs="8001201.342517" CO2_abs="430402374.150595" HC_abs="46613.943881" PMx_abs="8253.910745" NOx_abs="181143.318866" fuel_abs="185011.656936" electricity_abs="0"
            CO_normed="5760.864967" CO2_normed="309889.709388" HC_normed="33.562040" PMx_normed="5.942816" NOx_normed="130.423190" fuel_normed="133.208393" electricity_normed="0"
            traveltime="10.01" CO_perVeh="840.023555" CO2_perVeh="45186.730947" HC_perVeh="4.893866" PMx_perVeh="0.866555" NOx_perVeh="19.017726" fuel_perVeh="19.423852" electricity_perVeh="0"/>
            <lane id="4_1" sampledSeconds="74323.60" CO_abs="6716398.234423" CO2_abs="340250556.271825" HC_abs="38631.062432" PMx_abs="6599.225981" NOx_abs="143905.428494" fuel_abs="146259.426578" electricity_abs="0"
            CO_normed="4835.806729" CO2_normed="244980.400516" HC_normed="27.814365" PMx_normed="4.751443" NOx_normed="103.611909" fuel_normed="105.306787" electricity_normed="0"
            traveltime="10.61" CO_perVeh="959.217701" CO2_perVeh="48593.657658" HC_perVeh="5.517183" PMx_perVeh="0.942483" NOx_perVeh="20.552181" fuel_perVeh="20.888373" electricity_perVeh="0"/>
        </edge>
    </interval>
</meandata>
