<?xml version="1.0" encoding="UTF-8"?>

<!-- generated on Fri Apr 10 18:36:51 2020 by SUMO Version 0.32.0
<?xml version="1.0" encoding="UTF-8"?>

<configuration xmlns:xsi="http://www.w3.org/2001/XMLSchema-instance" xsi:noNamespaceSchemaLocation="http://sumo.dlr.de/xsd/sumoConfiguration.xsd">

    <input>
        <net-file value="base.net.xml"/>
        <route-files value="base.rou.xml"/>
        <additional-files value="additional.xml"/>
    </input>

    <time>
        <begin value="0"/>
        <end value="50000"/>
    </time>

    <random_number>
        <seed value="54449"/>
    </random_number>

</configuration>
-->

<meandata xmlns:xsi="http://www.w3.org/2001/XMLSchema-instance" xsi:noNamespaceSchemaLocation="http://sumo.dlr.de/xsd/meandata_file.xsd">
    <interval begin="0.00" end="50000.00" id="mid">
        <edge id="1">
            <lane id="1_0" sampledSeconds="1055504.36" CO_abs="77468677.717842" CO2_abs="1590902304.675425" HC_abs="389693.467044" PMx_abs="34832.662246" NOx_abs="703684.418979" fuel_abs="683894.908501" electricity_abs="0"
            CO_normed="27888.723978" CO2_normed="572724.829683" HC_normed="140.289648" PMx_normed="12.539758" NOx_normed="253.326391" fuel_normed="246.202167" electricity_normed="0"
            traveltime="131.80" CO_perVeh="9673.603742" CO2_perVeh="198657.818111" HC_perVeh="48.661476" PMx_perVeh="4.349595" NOx_perVeh="87.869891" fuel_perVeh="85.398751" electricity_perVeh="0"/>
            <lane id="1_1" sampledSeconds="1048159.69" CO_abs="75597870.481618" CO2_abs="1552793924.956053" HC_abs="380231.115868" PMx_abs="33736.570806" NOx_abs="685713.699766" fuel_abs="667513.257171" electricity_abs="0"
            CO_normed="27215.233373" CO2_normed="559005.812984" HC_normed="136.883202" PMx_normed="12.145165" NOx_normed="246.856932" fuel_normed="240.304773" electricity_normed="0"
            traveltime="129.66" CO_perVeh="9351.431641" CO2_perVeh="192080.096296" HC_perVeh="47.034464" PMx_perVeh="4.173203" NOx_perVeh="84.822558" fuel_perVeh="82.571170" electricity_perVeh="0"/>
        </edge>
        <edge id="2">
            <lane id="2_0" sampledSeconds="219055.26" CO_abs="7701273.484068" CO2_abs="421017226.586537" HC_abs="44818.708591" PMx_abs="6902.103502" NOx_abs="166626.211450" fuel_abs="180979.371032" electricity_abs="0"
            CO_normed="556.160171" CO2_normed="30404.453675" HC_normed="3.236657" PMx_normed="0.498447" NOx_normed="12.033187" fuel_normed="13.069724" electricity_normed="0"
            traveltime="107.48" CO_perVeh="3778.533562" CO2_perVeh="206566.839131" HC_perVeh="21.989739" PMx_perVeh="3.386431" NOx_perVeh="81.753068" fuel_perVeh="88.795266" electricity_perVeh="0"/>
            <lane id="2_1" sampledSeconds="5586619.71" CO_abs="414682132.999513" CO2_abs="7736350962.382282" HC_abs="2067825.186007" PMx_abs="174574.867225" NOx_abs="3449101.422641" fuel_abs="3325717.196947" electricity_abs="0"
            CO_normed="29946.954439" CO2_normed="558693.349340" HC_normed="149.331408" PMx_normed="12.607212" NOx_normed="249.082550" fuel_normed="240.172155" electricity_normed="0"
            traveltime="933.71" CO_perVeh="69307.239987" CO2_perVeh="1293002.736559" HC_perVeh="345.602680" PMx_perVeh="29.177293" NOx_perVeh="576.460091" fuel_perVeh="555.838464" electricity_perVeh="0"/>
            <lane id="2_2" sampledSeconds="5243499.51" CO_abs="371620118.148153" CO2_abs="7618875522.340146" HC_abs="1868728.407512" PMx_abs="165369.308013" NOx_abs="3364158.042629" fuel_abs="3275194.168438" electricity_abs="0"
            CO_normed="26837.159987" CO2_normed="550209.666608" HC_normed="134.953305" PMx_normed="11.942417" NOx_normed="242.948224" fuel_normed="236.523551" electricity_normed="0"
            traveltime="653.20" CO_perVeh="46293.962450" CO2_perVeh="949108.834842" HC_perVeh="232.793755" PMx_perVeh="20.600608" NOx_perVeh="419.084432" fuel_perVeh="408.001904" electricity_perVeh="0"/>
        </edge>
        <edge id="3">
            <lane id="3_0" sampledSeconds="548983.29" CO_abs="38247818.552897" CO2_abs="825209336.306796" HC_abs="193345.085738" PMx_abs="17926.710168" NOx_abs="364729.749383" fuel_abs="354738.354824" electricity_abs="0"
            CO_normed="27538.429358" CO2_normed="594150.722141" HC_normed="139.208462" PMx_normed="12.907231" NOx_normed="262.605420" fuel_normed="255.411615" electricity_normed="0"
            traveltime="66.12" CO_perVeh="4606.360602" CO2_perVeh="99383.753614" HC_perVeh="23.285437" PMx_perVeh="2.158996" NOx_perVeh="43.926080" fuel_perVeh="42.722771" electricity_perVeh="0"/>
            <lane id="3_1" sampledSeconds="548274.58" CO_abs="38200167.169131" CO2_abs="825615828.188463" HC_abs="193137.485716" PMx_abs="17925.840425" NOx_abs="364861.001116" fuel_abs="354913.052692" electricity_abs="0"
            CO_normed="27504.120362" CO2_normed="594443.396296" HC_normed="139.058990" PMx_normed="12.906605" NOx_normed="262.699921" fuel_normed="255.537398" electricity_normed="0"
            traveltime="65.78" CO_perVeh="4582.868016" CO2_perVeh="99049.000390" HC_perVeh="23.170674" PMx_perVeh="2.150560" NOx_perVeh="43.772317" fuel_perVeh="42.578863" electricity_perVeh="0"/>
        </edge>
        <edge id="4">
            <lane id="4_0" sampledSeconds="92976.36" CO_abs="7847283.383233" CO2_abs="420494938.093565" HC_abs="45678.268624" PMx_abs="8067.931489" NOx_abs="177011.601859" fuel_abs="180752.890443" electricity_abs="0"
            CO_normed="5650.044036" CO2_normed="302756.355427" HC_normed="32.888353" PMx_normed="5.808911" NOx_normed="127.448353" fuel_normed="130.142081" electricity_normed="0"
            traveltime="10.05" CO_perVeh="848.001360" CO2_perVeh="45439.964656" HC_perVeh="4.936133" PMx_perVeh="0.871845" NOx_perVeh="19.128413" fuel_perVeh="19.532708" electricity_perVeh="0"/>
            <lane id="4_1" sampledSeconds="76424.66" CO_abs="6857581.415446" CO2_abs="349497408.017541" HC_abs="39493.643580" PMx_abs="6778.197058" NOx_abs="147795.709459" fuel_abs="150234.226850" electricity_abs="0"
            CO_normed="4937.458619" CO2_normed="251638.133773" HC_normed="28.435423" PMx_normed="4.880302" NOx_normed="106.412911" fuel_normed="108.168643" electricity_normed="0"
            traveltime="10.53" CO_perVeh="945.072024" CO2_perVeh="48165.701993" HC_perVeh="5.442784" PMx_perVeh="0.934132" NOx_perVeh="20.368346" fuel_perVeh="20.704408" electricity_perVeh="0"/>
        </edge>
    </interval>
</meandata>
