<?xml version="1.0" encoding="UTF-8"?>

<!-- generated on Fri Apr 10 18:33:52 2020 by SUMO Version 0.32.0
<?xml version="1.0" encoding="UTF-8"?>

<configuration xmlns:xsi="http://www.w3.org/2001/XMLSchema-instance" xsi:noNamespaceSchemaLocation="http://sumo.dlr.de/xsd/sumoConfiguration.xsd">

    <input>
        <net-file value="base.net.xml"/>
        <route-files value="base.rou.xml"/>
        <additional-files value="additional.xml"/>
    </input>

    <time>
        <begin value="0"/>
        <end value="50000"/>
    </time>

    <random_number>
        <seed value="62642"/>
    </random_number>

</configuration>
-->

<meandata xmlns:xsi="http://www.w3.org/2001/XMLSchema-instance" xsi:noNamespaceSchemaLocation="http://sumo.dlr.de/xsd/meandata_file.xsd">
    <interval begin="0.00" end="50000.00" id="mid">
        <edge id="1">
            <lane id="1_0" sampledSeconds="1054039.06" CO_abs="76949581.539086" CO2_abs="1577716375.555915" HC_abs="386997.041354" PMx_abs="34443.215454" NOx_abs="697433.866126" fuel_abs="678226.794253" electricity_abs="0"
            CO_normed="27701.849354" CO2_normed="567977.895200" HC_normed="139.318935" PMx_normed="12.399558" NOx_normed="251.076192" fuel_normed="244.161646" electricity_normed="0"
            traveltime="131.30" CO_perVeh="9585.837708" CO2_perVeh="196540.810517" HC_perVeh="48.209370" PMx_perVeh="4.290694" NOx_perVeh="86.881406" fuel_perVeh="84.488724" electricity_perVeh="0"/>
            <lane id="1_1" sampledSeconds="1048824.68" CO_abs="75673267.353655" CO2_abs="1554727315.667603" HC_abs="380619.501821" PMx_abs="33778.532763" NOx_abs="686586.940524" fuel_abs="668344.362913" electricity_abs="0"
            CO_normed="27242.376247" CO2_normed="559701.833640" HC_normed="137.023021" PMx_normed="12.160272" NOx_normed="247.171299" fuel_normed="240.603971" electricity_normed="0"
            traveltime="129.71" CO_perVeh="9358.506934" CO2_perVeh="192273.003045" HC_perVeh="47.071183" PMx_perVeh="4.177388" NOx_perVeh="84.910152" fuel_perVeh="82.654094" electricity_perVeh="0"/>
        </edge>
        <edge id="2">
            <lane id="2_0" sampledSeconds="122693.77" CO_abs="3865569.883107" CO2_abs="247514313.881202" HC_abs="23333.045498" PMx_abs="3944.342870" NOx_abs="97082.147593" fuel_abs="106396.657044" electricity_abs="0"
            CO_normed="279.158507" CO2_normed="17874.654563" HC_normed="1.685034" PMx_normed="0.284847" NOx_normed="7.010947" fuel_normed="7.683610" electricity_normed="0"
            traveltime="96.49" CO_perVeh="3040.045945" CO2_perVeh="194655.615879" HC_perVeh="18.350084" PMx_perVeh="3.101996" NOx_perVeh="76.349464" fuel_perVeh="83.674784" electricity_perVeh="0"/>
            <lane id="2_1" sampledSeconds="5459422.89" CO_abs="398378923.369296" CO2_abs="7681878610.884086" HC_abs="1992185.251227" PMx_abs="170795.518097" NOx_abs="3412095.558410" fuel_abs="3302292.572302" electricity_abs="0"
            CO_normed="28769.591256" CO2_normed="554759.538599" HC_normed="143.868945" PMx_normed="12.334280" NOx_normed="246.410111" fuel_normed="238.480507" electricity_normed="0"
            traveltime="807.87" CO_perVeh="58951.097318" CO2_perVeh="1136744.810046" HC_perVeh="294.798494" PMx_perVeh="25.273885" NOx_perVeh="504.913201" fuel_perVeh="488.664835" electricity_perVeh="0"/>
            <lane id="2_2" sampledSeconds="5243818.29" CO_abs="371695765.018601" CO2_abs="7625189367.221704" HC_abs="1869217.733362" PMx_abs="165466.762673" NOx_abs="3366745.884196" fuel_abs="3277908.213286" electricity_abs="0"
            CO_normed="26842.622950" CO2_normed="550665.631334" HC_normed="134.988643" PMx_normed="11.949455" NOx_normed="243.135109" fuel_normed="236.719550" electricity_normed="0"
            traveltime="651.83" CO_perVeh="46203.774765" CO2_perVeh="947851.886469" HC_perVeh="232.353778" PMx_perVeh="20.568405" NOx_perVeh="418.504549" fuel_perVeh="407.461551" electricity_perVeh="0"/>
        </edge>
        <edge id="3">
            <lane id="3_0" sampledSeconds="548724.31" CO_abs="38252785.265899" CO2_abs="825932464.854131" HC_abs="193384.721148" PMx_abs="17939.325364" NOx_abs="365033.631809" fuel_abs="355049.190868" electricity_abs="0"
            CO_normed="27542.005391" CO2_normed="594671.374695" HC_normed="139.236999" PMx_normed="12.916314" NOx_normed="262.824215" fuel_normed="255.635417" electricity_normed="0"
            traveltime="65.99" CO_perVeh="4600.454326" CO2_perVeh="99330.403123" HC_perVeh="23.257328" PMx_perVeh="2.157465" NOx_perVeh="43.900609" fuel_perVeh="42.699834" electricity_perVeh="0"/>
            <lane id="3_1" sampledSeconds="547988.88" CO_abs="38178924.631875" CO2_abs="826382905.887249" HC_abs="193059.853995" PMx_abs="17940.698857" NOx_abs="365196.576216" fuel_abs="355242.754907" electricity_abs="0"
            CO_normed="27488.825735" CO2_normed="594995.692239" HC_normed="139.003095" PMx_normed="12.917303" NOx_normed="262.941535" fuel_normed="255.774784" electricity_normed="0"
            traveltime="65.60" CO_perVeh="4570.359021" CO2_perVeh="98925.430859" HC_perVeh="23.110993" PMx_perVeh="2.147662" NOx_perVeh="43.717299" fuel_perVeh="42.525738" electricity_perVeh="0"/>
        </edge>
        <edge id="4">
            <lane id="4_0" sampledSeconds="91192.28" CO_abs="7740535.757394" CO2_abs="412625264.713868" HC_abs="45005.158943" PMx_abs="7925.838823" NOx_abs="173779.321535" fuel_abs="177370.070681" electricity_abs="0"
            CO_normed="5573.185745" CO2_normed="297090.190594" HC_normed="32.403714" PMx_normed="5.706604" NOx_normed="125.121112" fuel_normed="127.706451" electricity_normed="0"
            traveltime="10.09" CO_perVeh="856.369641" CO2_perVeh="45650.554532" HC_perVeh="4.979119" PMx_perVeh="0.876871" NOx_perVeh="19.225973" fuel_perVeh="19.623234" electricity_perVeh="0"/>
            <lane id="4_1" sampledSeconds="78494.44" CO_abs="6986529.620788" CO2_abs="358641383.911765" HC_abs="40296.429296" PMx_abs="6942.659161" NOx_abs="151548.637107" fuel_abs="154164.816903" electricity_abs="0"
            CO_normed="5030.301327" CO2_normed="258221.796416" HC_normed="29.013429" PMx_normed="4.998715" NOx_normed="109.115019" fuel_normed="110.998668" electricity_normed="0"
            traveltime="10.46" CO_perVeh="931.115300" CO2_perVeh="47797.189447" HC_perVeh="5.370423" PMx_perVeh="0.925269" NOx_perVeh="20.197331" fuel_perVeh="20.545997" electricity_perVeh="0"/>
        </edge>
    </interval>
</meandata>
