<?xml version="1.0" encoding="UTF-8"?>

<!-- generated on Fri Apr 10 18:39:49 2020 by SUMO Version 0.32.0
<?xml version="1.0" encoding="UTF-8"?>

<configuration xmlns:xsi="http://www.w3.org/2001/XMLSchema-instance" xsi:noNamespaceSchemaLocation="http://sumo.dlr.de/xsd/sumoConfiguration.xsd">

    <input>
        <net-file value="base.net.xml"/>
        <route-files value="base.rou.xml"/>
        <additional-files value="additional.xml"/>
    </input>

    <time>
        <begin value="0"/>
        <end value="50000"/>
    </time>

    <random_number>
        <seed value="50713"/>
    </random_number>

</configuration>
-->

<meandata xmlns:xsi="http://www.w3.org/2001/XMLSchema-instance" xsi:noNamespaceSchemaLocation="http://sumo.dlr.de/xsd/meandata_file.xsd">
    <interval begin="0.00" end="50000.00" id="mid">
        <edge id="1">
            <lane id="1_0" sampledSeconds="1056192.79" CO_abs="77540115.874895" CO2_abs="1594678863.090574" HC_abs="390119.364698" PMx_abs="34957.148506" NOx_abs="705509.751957" fuel_abs="685518.222116" electricity_abs="0"
            CO_normed="27914.441715" CO2_normed="574084.390713" HC_normed="140.442971" PMx_normed="12.584573" NOx_normed="253.983511" fuel_normed="246.786560" electricity_normed="0"
            traveltime="132.27" CO_perVeh="9710.831208" CO2_perVeh="199711.556984" HC_perVeh="48.857076" PMx_perVeh="4.377901" NOx_perVeh="88.355376" fuel_perVeh="85.851713" electricity_perVeh="0"/>
            <lane id="1_1" sampledSeconds="1047905.63" CO_abs="75600112.298979" CO2_abs="1552653512.178178" HC_abs="380239.165742" PMx_abs="33739.712381" NOx_abs="685669.820149" fuel_abs="667452.897247" electricity_abs="0"
            CO_normed="27216.040428" CO2_normed="558955.264384" HC_normed="136.886100" PMx_normed="12.146296" NOx_normed="246.841135" fuel_normed="240.283043" electricity_normed="0"
            traveltime="129.69" CO_perVeh="9356.531354" CO2_perVeh="192161.768363" HC_perVeh="47.059714" PMx_perVeh="4.175743" NOx_perVeh="84.860868" fuel_perVeh="82.606279" electricity_perVeh="0"/>
        </edge>
        <edge id="2">
            <lane id="2_0" sampledSeconds="302729.42" CO_abs="12147398.673088" CO2_abs="554771481.101364" HC_abs="68168.888761" PMx_abs="9456.493677" NOx_abs="222369.727631" fuel_abs="238476.373061" electricity_abs="0"
            CO_normed="877.244438" CO2_normed="40063.737853" HC_normed="4.922929" PMx_normed="0.682916" NOx_normed="16.058797" fuel_normed="17.221965" electricity_normed="0"
            traveltime="122.63" CO_perVeh="4920.868243" CO2_perVeh="224735.965039" HC_perVeh="27.614976" PMx_perVeh="3.830792" NOx_perVeh="90.081190" fuel_perVeh="96.605935" electricity_perVeh="0"/>
            <lane id="2_1" sampledSeconds="5656459.34" CO_abs="423828091.845575" CO2_abs="7768757464.274093" HC_abs="2110310.559717" PMx_abs="176762.070863" NOx_abs="3470785.933378" fuel_abs="3339652.506724" electricity_abs="0"
            CO_normed="30607.444948" CO2_normed="561033.638343" HC_normed="152.399559" PMx_normed="12.765165" NOx_normed="250.648533" fuel_normed="241.178516" electricity_normed="0"
            traveltime="1019.70" CO_perVeh="76404.195074" CO2_perVeh="1400486.829919" HC_perVeh="380.429195" PMx_perVeh="31.865193" NOx_perVeh="625.684353" fuel_perVeh="602.044712" electricity_perVeh="0"/>
            <lane id="2_2" sampledSeconds="5240477.79" CO_abs="371737978.416505" CO2_abs="7615422986.196450" HC_abs="1869185.054436" PMx_abs="165333.238818" NOx_abs="3362816.049754" fuel_abs="3273710.188599" electricity_abs="0"
            CO_normed="26845.671460" CO2_normed="549960.336014" HC_normed="134.986283" PMx_normed="11.939813" NOx_normed="242.851310" fuel_normed="236.416383" electricity_normed="0"
            traveltime="654.51" CO_perVeh="46428.406567" CO2_perVeh="951132.182116" HC_perVeh="233.452832" PMx_perVeh="20.649380" NOx_perVeh="420.000645" fuel_perVeh="408.871723" electricity_perVeh="0"/>
        </edge>
        <edge id="3">
            <lane id="3_0" sampledSeconds="549243.64" CO_abs="38227453.007788" CO2_abs="824858766.254521" HC_abs="193245.022181" PMx_abs="17922.638826" NOx_abs="364596.342273" fuel_abs="354587.644091" electricity_abs="0"
            CO_normed="27523.766166" CO2_normed="593898.311703" HC_normed="139.136416" PMx_normed="12.904300" NOx_normed="262.509366" fuel_normed="255.303104" electricity_normed="0"
            traveltime="66.24" CO_perVeh="4610.558888" CO2_perVeh="99485.045878" HC_perVeh="23.307008" PMx_perVeh="2.161624" NOx_perVeh="43.973448" fuel_perVeh="42.766313" electricity_perVeh="0"/>
            <lane id="3_1" sampledSeconds="548488.00" CO_abs="38258653.599327" CO2_abs="826940341.544759" HC_abs="193435.625612" PMx_abs="17959.384166" NOx_abs="365474.626612" fuel_abs="355482.420760" electricity_abs="0"
            CO_normed="27546.230592" CO2_normed="595397.045912" HC_normed="139.273650" PMx_normed="12.930757" NOx_normed="263.141731" fuel_normed="255.947343" electricity_normed="0"
            traveltime="65.91" CO_perVeh="4597.177562" CO2_perVeh="99365.535007" HC_perVeh="23.243314" PMx_perVeh="2.158008" NOx_perVeh="43.915601" fuel_perVeh="42.714933" electricity_perVeh="0"/>
        </edge>
        <edge id="4">
            <lane id="4_0" sampledSeconds="94386.38" CO_abs="7936993.918570" CO2_abs="426672197.560289" HC_abs="46232.828386" PMx_abs="8182.733228" NOx_abs="179574.368271" fuel_abs="183408.216731" electricity_abs="0"
            CO_normed="5714.635621" CO2_normed="307203.982243" HC_normed="33.287636" PMx_normed="5.891568" NOx_normed="129.293545" fuel_normed="132.053916" electricity_normed="0"
            traveltime="10.02" CO_perVeh="842.355888" CO2_perVeh="45282.866732" HC_perVeh="4.906706" PMx_perVeh="0.868436" NOx_perVeh="19.058289" fuel_perVeh="19.465177" electricity_perVeh="0"/>
            <lane id="4_1" sampledSeconds="74771.14" CO_abs="6742571.632142" CO2_abs="342386819.338435" HC_abs="38801.235130" PMx_abs="6639.400471" NOx_abs="144794.975786" fuel_abs="147177.705234" electricity_abs="0"
            CO_normed="4854.651575" CO2_normed="246518.509924" HC_normed="27.936889" PMx_normed="4.780368" NOx_normed="104.252383" fuel_normed="105.967948" electricity_normed="0"
            traveltime="10.59" CO_perVeh="954.776377" CO2_perVeh="48483.407352" HC_perVeh="5.494417" PMx_perVeh="0.940167" NOx_perVeh="20.503575" fuel_perVeh="20.840979" electricity_perVeh="0"/>
        </edge>
    </interval>
</meandata>
