<?xml version="1.0" encoding="UTF-8"?>

<!-- generated on Wed Apr  8 18:39:48 2020 by SUMO Version 0.32.0
<?xml version="1.0" encoding="UTF-8"?>

<configuration xmlns:xsi="http://www.w3.org/2001/XMLSchema-instance" xsi:noNamespaceSchemaLocation="http://sumo.dlr.de/xsd/sumoConfiguration.xsd">

    <input>
        <net-file value="base.net.xml"/>
        <route-files value="base.rou.xml"/>
        <additional-files value="additional.xml"/>
    </input>

    <time>
        <begin value="0"/>
        <end value="50000"/>
    </time>

</configuration>
-->

<meandata xmlns:xsi="http://www.w3.org/2001/XMLSchema-instance" xsi:noNamespaceSchemaLocation="http://sumo.dlr.de/xsd/meandata_file.xsd">
    <interval begin="0.00" end="50000.00" id="mid">
        <edge id="1">
            <lane id="1_0" sampledSeconds="1054859.80" CO_abs="77566443.877119" CO2_abs="1602994712.190659" HC_abs="390454.780302" PMx_abs="35183.398012" NOx_abs="709328.567695" fuel_abs="689092.651619" electricity_abs="0"
            CO_normed="27923.919796" CO2_normed="577078.096389" HC_normed="140.563721" PMx_normed="12.666023" NOx_normed="255.358284" fuel_normed="248.073355" electricity_normed="0"
            traveltime="131.71" CO_perVeh="9684.897868" CO2_perVeh="200148.921286" HC_perVeh="48.751941" PMx_perVeh="4.392977" NOx_perVeh="88.566323" fuel_perVeh="86.039679" electricity_perVeh="0"/>
            <lane id="1_1" sampledSeconds="1046596.40" CO_abs="75467178.531103" CO2_abs="1551116266.434062" HC_abs="379598.989511" PMx_abs="33699.309975" NOx_abs="684935.623169" fuel_abs="666792.029904" electricity_abs="0"
            CO_normed="27168.184271" CO2_normed="558401.855916" HC_normed="136.655636" PMx_normed="12.131752" NOx_normed="246.576824" fuel_normed="240.045131" electricity_normed="0"
            traveltime="129.27" CO_perVeh="9321.274591" CO2_perVeh="191585.016479" HC_perVeh="46.885898" PMx_perVeh="4.162346" NOx_perVeh="84.599334" fuel_perVeh="82.358341" electricity_perVeh="0"/>
        </edge>
        <edge id="2">
            <lane id="2_0" sampledSeconds="474581.55" CO_abs="22287589.048904" CO2_abs="813403697.807416" HC_abs="120349.436703" PMx_abs="14664.439904" NOx_abs="332244.631285" fuel_abs="349655.595363" electricity_abs="0"
            CO_normed="1609.535017" CO2_normed="58741.290112" HC_normed="8.691233" PMx_normed="1.059017" NOx_normed="23.993594" fuel_normed="25.250956" electricity_normed="0"
            traveltime="151.88" CO_perVeh="7132.899565" CO2_perVeh="260320.973672" HC_perVeh="38.516523" PMx_perVeh="4.693194" NOx_perVeh="106.331267" fuel_perVeh="111.903456" electricity_perVeh="0"/>
            <lane id="2_1" sampledSeconds="5758511.54" CO_abs="437305362.163915" CO2_abs="7829846937.581186" HC_abs="2173233.126325" PMx_abs="180224.151377" NOx_abs="3508407.331461" fuel_abs="3365919.632600" electricity_abs="0"
            CO_normed="31580.728261" CO2_normed="565445.315452" HC_normed="156.943616" PMx_normed="13.015184" NOx_normed="253.365424" fuel_normed="243.075440" electricity_normed="0"
            traveltime="1166.45" CO_perVeh="88580.948642" CO2_perVeh="1586020.500680" HC_perVeh="440.211963" PMx_perVeh="36.506358" NOx_perVeh="710.665993" fuel_perVeh="681.803563" electricity_perVeh="0"/>
            <lane id="2_2" sampledSeconds="5237475.56" CO_abs="371203691.557334" CO2_abs="7601839381.650628" HC_abs="1866433.721181" PMx_abs="165040.261820" NOx_abs="3356823.075196" fuel_abs="3267870.990628" electricity_abs="0"
            CO_normed="26807.087053" CO2_normed="548979.373600" HC_normed="134.787591" PMx_normed="11.918655" NOx_normed="242.418517" fuel_normed="235.994695" electricity_normed="0"
            traveltime="654.93" CO_perVeh="46417.885848" CO2_perVeh="950586.755128" HC_perVeh="233.391826" PMx_perVeh="20.637780" NOx_perVeh="419.760455" fuel_perVeh="408.637269" electricity_perVeh="0"/>
        </edge>
        <edge id="3">
            <lane id="3_0" sampledSeconds="548645.84" CO_abs="38235931.203751" CO2_abs="825947623.261013" HC_abs="193308.595777" PMx_abs="17938.468791" NOx_abs="365034.957953" fuel_abs="355055.693665" electricity_abs="0"
            CO_normed="27529.870467" CO2_normed="594682.288748" HC_normed="139.182189" PMx_normed="12.915698" NOx_normed="262.825170" fuel_normed="255.640099" electricity_normed="0"
            traveltime="65.90" CO_perVeh="4592.552745" CO2_perVeh="99205.326109" HC_perVeh="23.218473" PMx_perVeh="2.154606" NOx_perVeh="43.844683" fuel_perVeh="42.646065" electricity_perVeh="0"/>
            <lane id="3_1" sampledSeconds="548484.59" CO_abs="38196601.636522" CO2_abs="825409747.345198" HC_abs="193117.208909" PMx_abs="17925.908597" NOx_abs="364795.982795" fuel_abs="354824.461840" electricity_abs="0"
            CO_normed="27501.553178" CO2_normed="594295.018089" HC_normed="139.044390" PMx_normed="12.906654" NOx_normed="262.653108" fuel_normed="255.473613" electricity_normed="0"
            traveltime="65.92" CO_perVeh="4590.949043" CO2_perVeh="99208.147510" HC_perVeh="23.211260" PMx_perVeh="2.154562" NOx_perVeh="43.845779" fuel_perVeh="42.647276" electricity_perVeh="0"/>
        </edge>
        <edge id="4">
            <lane id="4_0" sampledSeconds="95748.31" CO_abs="8045700.866509" CO2_abs="432586213.958389" HC_abs="46868.641890" PMx_abs="8300.645089" NOx_abs="182098.095765" fuel_abs="185950.392106" electricity_abs="0"
            CO_normed="5792.904624" CO2_normed="311462.074050" HC_normed="33.745422" PMx_normed="5.976464" NOx_normed="131.110629" fuel_normed="133.884282" electricity_normed="0"
            traveltime="10.01" CO_perVeh="840.975333" CO2_perVeh="45215.990695" HC_perVeh="4.898936" PMx_perVeh="0.867623" NOx_perVeh="19.033768" fuel_perVeh="19.436429" electricity_perVeh="0"/>
            <lane id="4_1" sampledSeconds="73835.94" CO_abs="6676013.841537" CO2_abs="337819089.138928" HC_abs="38388.341273" PMx_abs="6552.219509" NOx_abs="142879.459048" fuel_abs="145214.246884" electricity_abs="0"
            CO_normed="4806.729966" CO2_normed="243229.744180" HC_normed="27.639606" PMx_normed="4.717598" NOx_normed="102.873211" fuel_normed="104.554258" electricity_normed="0"
            traveltime="10.62" CO_perVeh="960.658555" CO2_perVeh="48611.163164" HC_perVeh="5.523968" PMx_perVeh="0.942845" NOx_perVeh="20.559930" fuel_perVeh="20.895899" electricity_perVeh="0"/>
        </edge>
    </interval>
</meandata>
