<?xml version="1.0" encoding="UTF-8"?>

<!-- generated on Wed Apr  8 18:45:01 2020 by SUMO Version 0.32.0
<?xml version="1.0" encoding="UTF-8"?>

<configuration xmlns:xsi="http://www.w3.org/2001/XMLSchema-instance" xsi:noNamespaceSchemaLocation="http://sumo.dlr.de/xsd/sumoConfiguration.xsd">

    <input>
        <net-file value="base.net.xml"/>
        <route-files value="base.rou.xml"/>
        <additional-files value="additional.xml"/>
    </input>

    <time>
        <begin value="0"/>
        <end value="50000"/>
    </time>

</configuration>
-->

<meandata xmlns:xsi="http://www.w3.org/2001/XMLSchema-instance" xsi:noNamespaceSchemaLocation="http://sumo.dlr.de/xsd/meandata_file.xsd">
    <interval begin="0.00" end="50000.00" id="mid">
        <edge id="1">
            <lane id="1_0" sampledSeconds="1054900.08" CO_abs="77404482.326779" CO2_abs="1606754790.458610" HC_abs="389820.463770" PMx_abs="35288.361783" NOx_abs="711072.240943" fuel_abs="690708.705918" electricity_abs="0"
            CO_normed="27865.613638" CO2_normed="578431.724565" HC_normed="140.335367" PMx_normed="12.703810" NOx_normed="255.986007" fuel_normed="248.655134" electricity_normed="0"
            traveltime="131.86" CO_perVeh="9675.389074" CO2_perVeh="200840.794704" HC_perVeh="48.726696" PMx_perVeh="4.410967" NOx_perVeh="88.882457" fuel_perVeh="86.337060" electricity_perVeh="0"/>
            <lane id="1_1" sampledSeconds="1044985.27" CO_abs="75418528.252373" CO2_abs="1552083663.472000" HC_abs="379399.998984" PMx_abs="33706.727174" NOx_abs="685268.676877" fuel_abs="667207.832873" electricity_abs="0"
            CO_normed="27150.670171" CO2_normed="558750.118850" HC_normed="136.584000" PMx_normed="12.134422" NOx_normed="246.696724" fuel_normed="240.194820" electricity_normed="0"
            traveltime="128.71" CO_perVeh="9289.139192" CO2_perVeh="191166.832899" HC_perVeh="46.729888" PMx_perVeh="4.151586" NOx_perVeh="84.403081" fuel_perVeh="82.178565" electricity_perVeh="0"/>
        </edge>
        <edge id="2">
            <lane id="2_0" sampledSeconds="1777173.14" CO_abs="123049282.660161" CO2_abs="2556932437.318661" HC_abs="619753.134654" PMx_abs="55623.397146" NOx_abs="1118353.728661" fuel_abs="1099170.985751" electricity_abs="0"
            CO_normed="8886.206972" CO2_normed="184653.094771" HC_normed="44.756495" PMx_normed="4.016935" NOx_normed="80.763760" fuel_normed="79.378446" electricity_normed="0"
            traveltime="458.36" CO_perVeh="31736.442973" CO2_perVeh="659475.120272" HC_perVeh="159.844573" PMx_perVeh="14.346193" NOx_perVeh="288.441904" fuel_perVeh="283.494357" electricity_perVeh="0"/>
            <lane id="2_1" sampledSeconds="5883157.22" CO_abs="453540298.445149" CO2_abs="7905395296.575929" HC_abs="2249088.934224" PMx_abs="184484.810330" NOx_abs="3554902.610457" fuel_abs="3398403.411680" electricity_abs="0"
            CO_normed="32753.160971" CO2_normed="570901.164848" HC_normed="162.421668" PMx_normed="13.322875" NOx_normed="256.723157" fuel_normed="245.421310" electricity_normed="0"
            traveltime="1404.27" CO_perVeh="108256.733966" CO2_perVeh="1886959.722109" HC_perVeh="536.840989" PMx_perVeh="44.035168" NOx_perVeh="848.529111" fuel_perVeh="811.173903" electricity_perVeh="0"/>
            <lane id="2_2" sampledSeconds="5233158.19" CO_abs="370847564.873076" CO2_abs="7599759105.951257" HC_abs="1864766.660381" PMx_abs="164971.432132" NOx_abs="3355807.072646" fuel_abs="3266976.536459" electricity_abs="0"
            CO_normed="26781.368777" CO2_normed="548829.143058" HC_normed="134.667201" PMx_normed="11.913684" NOx_normed="242.345145" fuel_normed="235.930101" electricity_normed="0"
            traveltime="653.90" CO_perVeh="46338.894162" CO2_perVeh="949620.453869" HC_perVeh="233.010091" PMx_perVeh="20.613844" NOx_perVeh="419.321585" fuel_perVeh="408.221853" electricity_perVeh="0"/>
        </edge>
        <edge id="3">
            <lane id="3_0" sampledSeconds="548955.40" CO_abs="38301580.824679" CO2_abs="827025693.254294" HC_abs="193632.950951" PMx_abs="17965.874998" NOx_abs="365533.326250" fuel_abs="355519.138686" electricity_abs="0"
            CO_normed="27577.138194" CO2_normed="595458.499143" HC_normed="139.415725" PMx_normed="12.935430" NOx_normed="263.183995" fuel_normed="255.973780" electricity_normed="0"
            traveltime="66.05" CO_perVeh="4608.707828" CO2_perVeh="99513.380494" HC_perVeh="23.299239" PMx_perVeh="2.161777" NOx_perVeh="43.983467" fuel_perVeh="42.778491" electricity_perVeh="0"/>
            <lane id="3_1" sampledSeconds="548346.82" CO_abs="38194905.918162" CO2_abs="825953228.887962" HC_abs="193122.650293" PMx_abs="17936.487401" NOx_abs="365032.642090" fuel_abs="355058.070365" electricity_abs="0"
            CO_normed="27500.332261" CO2_normed="594686.324799" HC_normed="139.048308" PMx_normed="12.914271" NOx_normed="262.823502" fuel_normed="255.641811" electricity_normed="0"
            traveltime="65.83" CO_perVeh="4585.491605" CO2_perVeh="99159.861920" HC_perVeh="23.185351" PMx_perVeh="2.153366" NOx_perVeh="43.824015" fuel_perVeh="42.626517" electricity_perVeh="0"/>
        </edge>
        <edge id="4">
            <lane id="4_0" sampledSeconds="96700.74" CO_abs="8099982.779380" CO2_abs="437030180.952013" HC_abs="47221.346252" PMx_abs="8379.228285" NOx_abs="183911.142937" fuel_abs="187860.651838" electricity_abs="0"
            CO_normed="5831.987601" CO2_normed="314661.730285" HC_normed="33.999369" PMx_normed="6.033044" NOx_normed="132.416023" fuel_normed="135.259669" electricity_normed="0"
            traveltime="9.98" CO_perVeh="836.297877" CO2_perVeh="45121.998713" HC_perVeh="4.875456" PMx_perVeh="0.865129" NOx_perVeh="18.988250" fuel_perVeh="19.396024" electricity_perVeh="0"/>
            <lane id="4_1" sampledSeconds="72808.01" CO_abs="6613932.809863" CO2_abs="333105002.047520" HC_abs="37994.999425" PMx_abs="6468.284002" NOx_abs="140952.666644" fuel_abs="143187.872031" electricity_abs="0"
            CO_normed="4762.031623" CO2_normed="239835.601474" HC_normed="27.356400" PMx_normed="4.657164" NOx_normed="101.485920" fuel_normed="103.095268" electricity_normed="0"
            traveltime="10.67" CO_perVeh="969.414223" CO2_perVeh="48823.708375" HC_perVeh="5.568985" PMx_perVeh="0.948066" NOx_perVeh="20.659647" fuel_perVeh="20.987265" electricity_perVeh="0"/>
        </edge>
    </interval>
</meandata>
