<?xml version="1.0" encoding="UTF-8"?>

<!-- generated on Wed Apr  8 18:26:05 2020 by SUMO Version 0.32.0
<?xml version="1.0" encoding="UTF-8"?>

<configuration xmlns:xsi="http://www.w3.org/2001/XMLSchema-instance" xsi:noNamespaceSchemaLocation="http://sumo.dlr.de/xsd/sumoConfiguration.xsd">

    <input>
        <net-file value="base.net.xml"/>
        <route-files value="base.rou.xml"/>
        <additional-files value="additional.xml"/>
    </input>

    <time>
        <begin value="0"/>
        <end value="50000"/>
    </time>

</configuration>
-->

<meandata xmlns:xsi="http://www.w3.org/2001/XMLSchema-instance" xsi:noNamespaceSchemaLocation="http://sumo.dlr.de/xsd/meandata_file.xsd">
    <interval begin="0.00" end="50000.00" id="mid">
        <edge id="1">
            <lane id="1_0" sampledSeconds="1055461.75" CO_abs="77349897.268386" CO2_abs="1589638425.655018" HC_abs="389123.454034" PMx_abs="34798.150527" NOx_abs="703095.523861" fuel_abs="683351.553892" electricity_abs="0"
            CO_normed="27845.963017" CO2_normed="572269.833236" HC_normed="140.084443" PMx_normed="12.527334" NOx_normed="253.114389" fuel_normed="246.006559" electricity_normed="0"
            traveltime="131.64" CO_perVeh="9647.027465" CO2_perVeh="198258.641490" HC_perVeh="48.531217" PMx_perVeh="4.340002" NOx_perVeh="87.689604" fuel_perVeh="85.227149" electricity_perVeh="0"/>
            <lane id="1_1" sampledSeconds="1048654.03" CO_abs="75648840.309177" CO2_abs="1554220078.876733" HC_abs="380497.183432" PMx_abs="33770.627377" NOx_abs="686373.839253" fuel_abs="668126.308968" electricity_abs="0"
            CO_normed="27233.582511" CO2_normed="559519.228396" HC_normed="136.978986" PMx_normed="12.157426" NOx_normed="247.094582" fuel_normed="240.525471" electricity_normed="0"
            traveltime="129.78" CO_perVeh="9362.232325" CO2_perVeh="192348.876779" HC_perVeh="47.089989" PMx_perVeh="4.179422" NOx_perVeh="84.945008" fuel_perVeh="82.686710" electricity_perVeh="0"/>
        </edge>
        <edge id="2">
            <lane id="2_0" sampledSeconds="214530.95" CO_abs="7397038.261757" CO2_abs="415987903.145006" HC_abs="43315.087776" PMx_abs="6777.106376" NOx_abs="164310.216042" fuel_abs="178817.343747" electricity_abs="0"
            CO_normed="534.189323" CO2_normed="30041.252785" HC_normed="3.128071" PMx_normed="0.489420" NOx_normed="11.865933" fuel_normed="12.913590" electricity_normed="0"
            traveltime="105.48" CO_perVeh="3636.812027" CO2_perVeh="204523.723622" HC_perVeh="21.296204" PMx_perVeh="3.332018" NOx_perVeh="80.784410" fuel_perVeh="87.916953" electricity_perVeh="0"/>
            <lane id="2_1" sampledSeconds="5585241.91" CO_abs="414414787.558753" CO2_abs="7736484005.936812" HC_abs="2066609.927274" PMx_abs="174533.967015" NOx_abs="3448957.959068" fuel_abs="3325774.213803" electricity_abs="0"
            CO_normed="29927.647647" CO2_normed="558702.957299" HC_normed="149.243646" PMx_normed="12.604258" NOx_normed="249.072190" fuel_normed="240.176272" electricity_normed="0"
            traveltime="931.27" CO_perVeh="69098.566908" CO2_perVeh="1289963.519072" HC_perVeh="344.581778" PMx_perVeh="29.101392" NOx_perVeh="575.071304" fuel_perVeh="554.531930" electricity_perVeh="0"/>
            <lane id="2_2" sampledSeconds="5243879.13" CO_abs="371673069.010359" CO2_abs="7620034324.460732" HC_abs="1868995.586848" PMx_abs="165389.149744" NOx_abs="3364653.744900" fuel_abs="3275692.316294" electricity_abs="0"
            CO_normed="26840.983921" CO2_normed="550293.351415" HC_normed="134.972600" PMx_normed="11.943850" NOx_normed="242.984022" fuel_normed="236.559525" electricity_normed="0"
            traveltime="653.36" CO_perVeh="46308.812136" CO2_perVeh="949422.402172" HC_perVeh="232.868542" PMx_perVeh="20.606753" NOx_perVeh="419.220899" fuel_perVeh="408.136701" electricity_perVeh="0"/>
        </edge>
        <edge id="3">
            <lane id="3_0" sampledSeconds="548855.11" CO_abs="38311817.767109" CO2_abs="826896854.332462" HC_abs="193675.840916" PMx_abs="17961.780177" NOx_abs="365466.230723" fuel_abs="355463.769854" electricity_abs="0"
            CO_normed="27584.508792" CO2_normed="595365.735119" HC_normed="139.446605" PMx_normed="12.932482" NOx_normed="263.135686" fuel_normed="255.933914" electricity_normed="0"
            traveltime="66.02" CO_perVeh="4608.416558" CO2_perVeh="99465.005242" HC_perVeh="23.296701" PMx_perVeh="2.160570" NOx_perVeh="43.960864" fuel_perVeh="42.757698" electricity_perVeh="0"/>
            <lane id="3_1" sampledSeconds="548276.74" CO_abs="38226900.612303" CO2_abs="826508488.584502" HC_abs="193280.748857" PMx_abs="17946.923035" NOx_abs="365267.040620" fuel_abs="355296.771525" electricity_abs="0"
            CO_normed="27523.368441" CO2_normed="595086.111781" HC_normed="139.162139" PMx_normed="12.921785" NOx_normed="262.992269" fuel_normed="255.813675" electricity_normed="0"
            traveltime="65.78" CO_perVeh="4586.110017" CO2_perVeh="99156.844996" HC_perVeh="23.188037" PMx_perVeh="2.153106" NOx_perVeh="43.821362" fuel_perVeh="42.625221" electricity_perVeh="0"/>
        </edge>
        <edge id="4">
            <lane id="4_0" sampledSeconds="92930.14" CO_abs="7856367.910040" CO2_abs="420204483.002992" HC_abs="45713.419656" PMx_abs="8069.293049" NOx_abs="176944.993058" fuel_abs="180628.036823" electricity_abs="0"
            CO_normed="5656.584895" CO2_normed="302547.227762" HC_normed="32.913662" PMx_normed="5.809891" NOx_normed="127.400395" fuel_normed="130.052187" electricity_normed="0"
            traveltime="10.06" CO_perVeh="850.065531" CO2_perVeh="45466.473933" HC_perVeh="4.946230" PMx_perVeh="0.873104" NOx_perVeh="19.145595" fuel_perVeh="19.544104" electricity_perVeh="0"/>
            <lane id="4_1" sampledSeconds="76555.99" CO_abs="6854621.857764" CO2_abs="350380858.053974" HC_abs="39499.307707" PMx_abs="6783.406501" NOx_abs="148073.783698" fuel_abs="150613.987551" electricity_abs="0"
            CO_normed="4935.327738" CO2_normed="252274.217799" HC_normed="28.439502" PMx_normed="4.884053" NOx_normed="106.613124" fuel_normed="108.442071" electricity_normed="0"
            traveltime="10.52" CO_perVeh="941.927877" CO2_perVeh="48147.586335" HC_perVeh="5.427797" PMx_perVeh="0.932142" NOx_perVeh="20.347559" fuel_perVeh="20.696621" electricity_perVeh="0"/>
        </edge>
    </interval>
</meandata>
