<?xml version="1.0" encoding="UTF-8"?>

<!-- generated on Thu Apr  9 00:10:02 2020 by SUMO Version 0.32.0
<?xml version="1.0" encoding="UTF-8"?>

<configuration xmlns:xsi="http://www.w3.org/2001/XMLSchema-instance" xsi:noNamespaceSchemaLocation="http://sumo.dlr.de/xsd/sumoConfiguration.xsd">

    <input>
        <net-file value="base.net.xml"/>
        <route-files value="base.rou.xml"/>
        <additional-files value="additional.xml"/>
    </input>

    <time>
        <begin value="0"/>
        <end value="50000"/>
    </time>

</configuration>
-->

<meandata xmlns:xsi="http://www.w3.org/2001/XMLSchema-instance" xsi:noNamespaceSchemaLocation="http://sumo.dlr.de/xsd/meandata_file.xsd">
    <interval begin="0.00" end="50000.00" id="mid">
        <edge id="1">
            <lane id="1_0" sampledSeconds="1051720.49" CO_abs="76301512.201521" CO2_abs="1590029930.733569" HC_abs="384374.405728" PMx_abs="34733.718519" NOx_abs="702971.845716" fuel_abs="683519.033431" electricity_abs="0"
            CO_normed="27468.544393" CO2_normed="572410.775064" HC_normed="138.374786" PMx_normed="12.504139" NOx_normed="253.069864" fuel_normed="246.066852" electricity_normed="0"
            traveltime="130.06" CO_perVeh="9435.941554" CO2_perVeh="196633.448842" HC_perVeh="47.534240" PMx_perVeh="4.295398" NOx_perVeh="86.934073" fuel_perVeh="84.528412" electricity_perVeh="0"/>
            <lane id="1_1" sampledSeconds="1044911.17" CO_abs="75380377.389996" CO2_abs="1551159642.475309" HC_abs="379205.443043" PMx_abs="33688.694635" NOx_abs="684863.165805" fuel_abs="666810.619679" electricity_abs="0"
            CO_normed="27136.935860" CO2_normed="558417.471291" HC_normed="136.513959" PMx_normed="12.127930" NOx_normed="246.550740" fuel_normed="240.051823" electricity_normed="0"
            traveltime="128.78" CO_perVeh="9290.517439" CO2_perVeh="191178.078535" HC_perVeh="46.736497" PMx_perVeh="4.152081" NOx_perVeh="84.408349" fuel_perVeh="82.183400" electricity_perVeh="0"/>
        </edge>
        <edge id="2">
            <lane id="2_0" sampledSeconds="5849797.84" CO_abs="451849707.539558" CO2_abs="7855017953.404143" HC_abs="2240250.150931" PMx_abs="183629.950616" NOx_abs="3533960.023863" fuel_abs="3376747.569108" electricity_abs="0"
            CO_normed="32631.072159" CO2_normed="567263.081891" HC_normed="161.783361" PMx_normed="13.261140" NOx_normed="255.210754" fuel_normed="243.857397" electricity_normed="0"
            traveltime="1442.69" CO_perVeh="111435.907757" CO2_perVeh="1937217.268219" HC_perVeh="552.494126" PMx_perVeh="45.287116" NOx_perVeh="871.550953" fuel_perVeh="832.778962" electricity_perVeh="0"/>
            <lane id="2_1" sampledSeconds="5889939.62" CO_abs="455292305.949874" CO2_abs="7909424694.277373" HC_abs="2257185.719664" PMx_abs="184913.970245" NOx_abs="3558388.400845" fuel_abs="3400136.426008" electricity_abs="0"
            CO_normed="32879.685084" CO2_normed="571192.154451" HC_normed="163.006391" PMx_normed="13.353867" NOx_normed="256.974890" fuel_normed="245.546462" electricity_normed="0"
            traveltime="1442.56" CO_perVeh="111510.256712" CO2_perVeh="1937177.427732" HC_perVeh="552.830249" PMx_perVeh="45.289156" NOx_perVeh="871.520996" fuel_perVeh="832.761900" electricity_perVeh="0"/>
            <lane id="2_2" sampledSeconds="5229540.04" CO_abs="370989993.099460" CO2_abs="7596827782.873280" HC_abs="1865348.926854" PMx_abs="164961.289486" NOx_abs="3354888.890960" fuel_abs="3265716.581802" electricity_abs="0"
            CO_normed="26791.654467" CO2_normed="548617.452725" HC_normed="134.709250" PMx_normed="11.912952" NOx_normed="242.278837" fuel_normed="235.839111" electricity_normed="0"
            traveltime="656.57" CO_perVeh="46578.041116" CO2_perVeh="953786.795878" HC_perVeh="234.195802" PMx_perVeh="20.711000" NOx_perVeh="421.208538" fuel_perVeh="410.012895" electricity_perVeh="0"/>
        </edge>
        <edge id="3">
            <lane id="3_0" sampledSeconds="548810.03" CO_abs="38285170.884641" CO2_abs="826002592.616144" HC_abs="193533.540339" PMx_abs="17943.542800" NOx_abs="365076.117282" fuel_abs="355079.358599" electricity_abs="0"
            CO_normed="27565.323037" CO2_normed="594721.866684" HC_normed="139.344149" PMx_normed="12.919351" NOx_normed="262.854804" fuel_normed="255.657138" electricity_normed="0"
            traveltime="66.04" CO_perVeh="4606.729054" CO2_perVeh="99390.183043" HC_perVeh="23.287256" PMx_perVeh="2.159088" NOx_perVeh="43.928412" fuel_perVeh="42.725535" electricity_perVeh="0"/>
            <lane id="3_1" sampledSeconds="548522.39" CO_abs="38239682.004052" CO2_abs="826251002.087163" HC_abs="193332.679387" PMx_abs="17943.519451" NOx_abs="365163.871058" fuel_abs="355186.102220" electricity_abs="0"
            CO_normed="27532.571043" CO2_normed="594900.721503" HC_normed="139.199529" PMx_normed="12.919334" NOx_normed="262.917987" fuel_normed="255.733994" electricity_normed="0"
            traveltime="65.92" CO_perVeh="4595.825562" CO2_perVeh="99302.747220" HC_perVeh="23.235634" PMx_perVeh="2.156537" NOx_perVeh="43.887118" fuel_perVeh="42.687943" electricity_perVeh="0"/>
        </edge>
        <edge id="4">
            <lane id="4_0" sampledSeconds="95872.81" CO_abs="8044524.886896" CO2_abs="433143484.289930" HC_abs="46876.768750" PMx_abs="8308.526712" NOx_abs="182308.149622" fuel_abs="186189.934048" electricity_abs="0"
            CO_normed="5792.057919" CO2_normed="311863.308689" HC_normed="33.751273" PMx_normed="5.982139" NOx_normed="131.261868" fuel_normed="134.056753" electricity_normed="0"
            traveltime="10.00" CO_perVeh="838.862249" CO2_perVeh="45167.082275" HC_perVeh="4.888188" PMx_perVeh="0.866392" NOx_perVeh="19.010622" fuel_perVeh="19.415405" electricity_perVeh="0"/>
            <lane id="4_1" sampledSeconds="73580.90" CO_abs="6660968.837491" CO2_abs="336369778.166916" HC_abs="38286.562287" PMx_abs="6526.828988" NOx_abs="142291.467129" fuel_abs="144591.255827" electricity_abs="0"
            CO_normed="4795.897563" CO2_normed="242186.240280" HC_normed="27.566325" PMx_normed="4.699317" NOx_normed="102.449856" fuel_normed="104.105704" electricity_normed="0"
            traveltime="10.64" CO_perVeh="963.458363" CO2_perVeh="48653.324128" HC_perVeh="5.537859" PMx_perVeh="0.944056" NOx_perVeh="20.581376" fuel_perVeh="20.914023" electricity_perVeh="0"/>
        </edge>
    </interval>
</meandata>
