<?xml version="1.0" encoding="UTF-8"?>

<!-- generated on Fri Apr 17 14:05:22 2020 by SUMO Version 0.32.0
<?xml version="1.0" encoding="UTF-8"?>

<configuration xmlns:xsi="http://www.w3.org/2001/XMLSchema-instance" xsi:noNamespaceSchemaLocation="http://sumo.dlr.de/xsd/sumoConfiguration.xsd">

    <input>
        <net-file value="base.net.xml"/>
        <route-files value="trips.xml"/>
        <additional-files value="additional.xml"/>
    </input>

    <time>
        <begin value="0"/>
        <end value="22500"/>
    </time>

    <random_number>
        <seed value="37208"/>
    </random_number>

</configuration>
-->

<meandata xmlns:xsi="http://www.w3.org/2001/XMLSchema-instance" xsi:noNamespaceSchemaLocation="http://sumo.dlr.de/xsd/meandata_file.xsd">
    <interval begin="0.00" end="22500.00" id="mid">
        <edge id="1">
            <lane id="1_0" sampledSeconds="35583.57" CO_abs="2319392.368151" CO2_abs="145729881.388148" HC_abs="14013.071948" PMx_abs="2745.392803" NOx_abs="60876.686663" fuel_abs="62642.828047" electricity_abs="0"
            CO_normed="3711.027789" CO2_normed="233167.810221" HC_normed="22.420915" PMx_normed="4.392628" NOx_normed="97.402699" fuel_normed="100.228525" electricity_normed="0"
            traveltime="9.48" CO_perVeh="617.641443" CO2_perVeh="38807.066649" HC_perVeh="3.731604" PMx_perVeh="0.731083" NOx_perVeh="16.211127" fuel_perVeh="16.681441" electricity_perVeh="0"/>
            <lane id="1_1" sampledSeconds="35494.77" CO_abs="1566713.162760" CO2_abs="115218296.131303" HC_abs="9848.934714" PMx_abs="2037.703119" NOx_abs="46979.514501" fuel_abs="49527.252373" electricity_abs="0"
            CO_normed="2506.741060" CO2_normed="184349.273810" HC_normed="15.758296" PMx_normed="3.260325" NOx_normed="75.167223" fuel_normed="79.243604" electricity_normed="0"
            traveltime="8.55" CO_perVeh="377.353594" CO2_perVeh="27751.115648" HC_perVeh="2.372183" PMx_perVeh="0.490795" NOx_perVeh="11.315338" fuel_perVeh="11.928978" electricity_perVeh="0"/>
        </edge>
        <edge id="2">
            <lane id="2_0" sampledSeconds="336820.46" CO_abs="6502611.900588" CO2_abs="726026456.270171" HC_abs="46395.149979" PMx_abs="10539.108257" NOx_abs="276237.126192" fuel_abs="312087.815491" electricity_abs="0"
            CO_normed="1864.548215" CO2_normed="208179.629038" HC_normed="13.303269" PMx_normed="3.021967" NOx_normed="79.207778" fuel_normed="89.487546" electricity_normed="0"
            traveltime="43.06" CO_perVeh="831.352836" CO2_perVeh="92821.801874" HC_perVeh="5.931576" PMx_perVeh="1.347415" NOx_perVeh="35.316658" fuel_perVeh="39.900135" electricity_perVeh="0"/>
            <lane id="2_1" sampledSeconds="344653.47" CO_abs="6222700.587020" CO2_abs="725327460.225849" HC_abs="45091.519405" PMx_abs="10392.712278" NOx_abs="274768.391723" fuel_abs="311787.354541" electricity_abs="0"
            CO_normed="1784.286907" CO2_normed="207979.200065" HC_normed="12.929468" PMx_normed="2.979989" NOx_normed="78.786636" fuel_normed="89.401392" electricity_normed="0"
            traveltime="42.83" CO_perVeh="773.314985" CO2_perVeh="90138.772776" HC_perVeh="5.603668" PMx_perVeh="1.291536" NOx_perVeh="34.146350" fuel_perVeh="38.746816" electricity_perVeh="0"/>
        </edge>
        <edge id="3">
            <lane id="3_0" sampledSeconds="61529.03" CO_abs="906981.473528" CO2_abs="121203188.193440" HC_abs="6916.414961" PMx_abs="1644.901550" NOx_abs="45128.326466" fuel_abs="52100.129809" electricity_abs="0"
            CO_normed="1451.170358" CO2_normed="193925.101110" HC_normed="11.066264" PMx_normed="2.631842" NOx_normed="72.205322" fuel_normed="83.360208" electricity_normed="0"
            traveltime="7.57" CO_perVeh="111.623521" CO2_perVeh="14916.651606" HC_perVeh="0.851213" PMx_perVeh="0.202440" NOx_perVeh="5.554008" fuel_perVeh="6.412038" electricity_perVeh="0"/>
            <lane id="3_1" sampledSeconds="63027.79" CO_abs="954552.770700" CO2_abs="125789881.509166" HC_abs="7241.182108" PMx_abs="1718.042715" NOx_abs="46928.494137" fuel_abs="54071.748133" electricity_abs="0"
            CO_normed="1527.284433" CO2_normed="201263.810415" HC_normed="11.585891" PMx_normed="2.748868" NOx_normed="75.085591" fuel_normed="86.514797" electricity_normed="0"
            traveltime="7.58" CO_perVeh="114.799409" CO2_perVeh="15128.135898" HC_perVeh="0.870862" PMx_perVeh="0.206621" NOx_perVeh="5.643861" fuel_perVeh="6.502946" electricity_perVeh="0"/>
        </edge>
    </interval>
</meandata>
