<?xml version="1.0" encoding="UTF-8"?>

<!-- generated on Fri Apr 17 14:08:21 2020 by SUMO Version 0.32.0
<?xml version="1.0" encoding="UTF-8"?>

<configuration xmlns:xsi="http://www.w3.org/2001/XMLSchema-instance" xsi:noNamespaceSchemaLocation="http://sumo.dlr.de/xsd/sumoConfiguration.xsd">

    <input>
        <net-file value="base.net.xml"/>
        <route-files value="trips.xml"/>
        <additional-files value="additional.xml"/>
    </input>

    <time>
        <begin value="0"/>
        <end value="22500"/>
    </time>

    <random_number>
        <seed value="86820"/>
    </random_number>

</configuration>
-->

<meandata xmlns:xsi="http://www.w3.org/2001/XMLSchema-instance" xsi:noNamespaceSchemaLocation="http://sumo.dlr.de/xsd/meandata_file.xsd">
    <interval begin="0.00" end="22500.00" id="mid">
        <edge id="1">
            <lane id="1_0" sampledSeconds="35482.62" CO_abs="2322427.362356" CO2_abs="145719704.200538" HC_abs="14026.285174" PMx_abs="2745.626100" NOx_abs="60875.159381" fuel_abs="62638.455347" electricity_abs="0"
            CO_normed="3715.883780" CO2_normed="233151.526721" HC_normed="22.442056" PMx_normed="4.393002" NOx_normed="97.400255" fuel_normed="100.221529" electricity_normed="0"
            traveltime="9.49" CO_perVeh="620.927436" CO2_perVeh="38959.824456" HC_perVeh="3.750087" PMx_perVeh="0.734074" NOx_perVeh="16.275668" fuel_perVeh="16.747105" electricity_perVeh="0"/>
            <lane id="1_1" sampledSeconds="35486.10" CO_abs="1528207.216799" CO2_abs="113173229.978205" HC_abs="9625.028775" PMx_abs="1996.527642" NOx_abs="46101.857088" fuel_abs="48648.168540" electricity_abs="0"
            CO_normed="2445.131547" CO2_normed="181077.167965" HC_normed="15.400046" PMx_normed="3.194444" NOx_normed="73.762971" fuel_normed="77.837070" electricity_normed="0"
            traveltime="8.52" CO_perVeh="366.755490" CO2_perVeh="27160.520470" HC_perVeh="2.309917" PMx_perVeh="0.479148" NOx_perVeh="11.064016" fuel_perVeh="11.675107" electricity_perVeh="0"/>
        </edge>
        <edge id="2">
            <lane id="2_0" sampledSeconds="335966.47" CO_abs="6537029.271760" CO2_abs="727670898.511655" HC_abs="46587.239266" PMx_abs="10568.936007" NOx_abs="276922.795617" fuel_abs="312794.696053" electricity_abs="0"
            CO_normed="1874.416995" CO2_normed="208651.153695" HC_normed="13.358348" PMx_normed="3.030519" NOx_normed="79.404386" fuel_normed="89.690235" electricity_normed="0"
            traveltime="43.08" CO_perVeh="838.289414" CO2_perVeh="93314.376558" HC_perVeh="5.974211" PMx_perVeh="1.355329" NOx_perVeh="35.511765" fuel_perVeh="40.111872" electricity_perVeh="0"/>
            <lane id="2_1" sampledSeconds="345129.13" CO_abs="6080662.391211" CO2_abs="719203374.770462" HC_abs="44297.090479" PMx_abs="10246.586528" NOx_abs="271952.218570" fuel_abs="309154.896395" electricity_abs="0"
            CO_normed="1743.559109" CO2_normed="206223.189898" HC_normed="12.701675" PMx_normed="2.938089" NOx_normed="77.979131" fuel_normed="88.646565" electricity_normed="0"
            traveltime="42.76" CO_perVeh="753.447556" CO2_perVeh="89115.624278" HC_perVeh="5.488799" PMx_perVeh="1.269642" NOx_perVeh="33.697272" fuel_perVeh="38.307011" electricity_perVeh="0"/>
        </edge>
        <edge id="3">
            <lane id="3_0" sampledSeconds="61244.92" CO_abs="895325.457950" CO2_abs="120525754.514239" HC_abs="6845.735160" PMx_abs="1629.224944" NOx_abs="44824.374666" fuel_abs="51808.934771" electricity_abs="0"
            CO_normed="1432.520733" CO2_normed="192841.207223" HC_normed="10.953176" PMx_normed="2.606760" NOx_normed="71.718999" fuel_normed="82.894296" electricity_normed="0"
            traveltime="7.57" CO_perVeh="110.677495" CO2_perVeh="14899.038593" HC_perVeh="0.846250" PMx_perVeh="0.201400" NOx_perVeh="5.541057" fuel_perVeh="6.404468" electricity_perVeh="0"/>
            <lane id="3_1" sampledSeconds="63320.49" CO_abs="956771.549219" CO2_abs="126304185.211515" HC_abs="7261.987415" PMx_abs="1723.236854" NOx_abs="47105.941013" fuel_abs="54292.826997" electricity_abs="0"
            CO_normed="1530.834479" CO2_normed="202086.696338" HC_normed="11.619180" PMx_normed="2.757179" NOx_normed="75.369506" fuel_normed="86.868523" electricity_normed="0"
            traveltime="7.58" CO_perVeh="114.536358" CO2_perVeh="15120.037144" HC_perVeh="0.869342" PMx_perVeh="0.206291" NOx_perVeh="5.639113" fuel_perVeh="6.499464" electricity_perVeh="0"/>
        </edge>
    </interval>
</meandata>
