<?xml version="1.0" encoding="UTF-8"?>

<!-- generated on Fri Apr 17 13:58:04 2020 by SUMO Version 0.32.0
<?xml version="1.0" encoding="UTF-8"?>

<configuration xmlns:xsi="http://www.w3.org/2001/XMLSchema-instance" xsi:noNamespaceSchemaLocation="http://sumo.dlr.de/xsd/sumoConfiguration.xsd">

    <input>
        <net-file value="base.net.xml"/>
        <route-files value="trips.xml"/>
        <additional-files value="additional.xml"/>
    </input>

    <time>
        <begin value="0"/>
        <end value="22500"/>
    </time>

    <random_number>
        <seed value="83137"/>
    </random_number>

</configuration>
-->

<meandata xmlns:xsi="http://www.w3.org/2001/XMLSchema-instance" xsi:noNamespaceSchemaLocation="http://sumo.dlr.de/xsd/meandata_file.xsd">
    <interval begin="0.00" end="22500.00" id="mid">
        <edge id="1">
            <lane id="1_0" sampledSeconds="35261.28" CO_abs="2313784.431530" CO2_abs="145069830.062147" HC_abs="13971.849298" PMx_abs="2733.669696" NOx_abs="60608.386154" fuel_abs="62359.103996" electricity_abs="0"
            CO_normed="3702.055090" CO2_normed="232111.728099" HC_normed="22.354959" PMx_normed="4.373872" NOx_normed="96.973418" fuel_normed="99.774566" electricity_normed="0"
            traveltime="9.50" CO_perVeh="623.456870" CO2_perVeh="39089.545652" HC_perVeh="3.764761" PMx_perVeh="0.736596" NOx_perVeh="16.331130" fuel_perVeh="16.802867" electricity_perVeh="0"/>
            <lane id="1_1" sampledSeconds="35324.37" CO_abs="1464186.312717" CO2_abs="110954538.157455" HC_abs="9280.322991" PMx_abs="1945.527891" NOx_abs="45084.812490" fuel_abs="47694.443755" electricity_abs="0"
            CO_normed="2342.698100" CO2_normed="177527.261052" HC_normed="14.848517" PMx_normed="3.112845" NOx_normed="72.135700" fuel_normed="76.311110" electricity_normed="0"
            traveltime="8.42" CO_perVeh="348.959229" CO2_perVeh="26443.772752" HC_perVeh="2.211778" PMx_perVeh="0.463677" NOx_perVeh="10.745054" fuel_perVeh="11.367007" electricity_perVeh="0"/>
        </edge>
        <edge id="2">
            <lane id="2_0" sampledSeconds="335764.84" CO_abs="6531229.132755" CO2_abs="726272001.586757" HC_abs="46532.576667" PMx_abs="10554.841857" NOx_abs="276439.596344" fuel_abs="312193.365863" electricity_abs="0"
            CO_normed="1872.753873" CO2_normed="208250.036297" HC_normed="13.342674" PMx_normed="3.026478" NOx_normed="79.265834" fuel_normed="89.517811" electricity_normed="0"
            traveltime="43.09" CO_perVeh="838.150535" CO2_perVeh="93202.252434" HC_perVeh="5.971511" PMx_perVeh="1.354499" NOx_perVeh="35.475405" fuel_perVeh="40.063674" electricity_perVeh="0"/>
            <lane id="2_1" sampledSeconds="345704.23" CO_abs="6167054.627870" CO2_abs="723971191.157159" HC_abs="44803.771545" PMx_abs="10339.098256" NOx_abs="273972.684407" fuel_abs="311204.373461" electricity_abs="0"
            CO_normed="1768.331076" CO2_normed="207590.305708" HC_normed="12.846960" PMx_normed="2.964616" NOx_normed="78.558476" fuel_normed="89.234229" electricity_normed="0"
            traveltime="42.81" CO_perVeh="763.619794" CO2_perVeh="89643.884374" HC_perVeh="5.547713" PMx_perVeh="1.280212" NOx_perVeh="33.923968" fuel_perVeh="38.534087" electricity_perVeh="0"/>
        </edge>
        <edge id="3">
            <lane id="3_0" sampledSeconds="61282.94" CO_abs="900441.177812" CO2_abs="120080487.317860" HC_abs="6861.108171" PMx_abs="1631.364528" NOx_abs="44724.021096" fuel_abs="51617.526857" electricity_abs="0"
            CO_normed="1440.705884" CO2_normed="192128.779709" HC_normed="10.977773" PMx_normed="2.610183" NOx_normed="71.558434" fuel_normed="82.588043" electricity_normed="0"
            traveltime="7.57" CO_perVeh="111.264460" CO2_perVeh="14837.938274" HC_perVeh="0.847804" PMx_perVeh="0.201582" NOx_perVeh="5.526395" fuel_perVeh="6.378203" electricity_perVeh="0"/>
            <lane id="3_1" sampledSeconds="63277.43" CO_abs="957887.816399" CO2_abs="126372488.840738" HC_abs="7269.093457" PMx_abs="1725.340460" NOx_abs="47139.142515" fuel_abs="54322.186591" electricity_abs="0"
            CO_normed="1532.620506" CO2_normed="202195.982145" HC_normed="11.630550" PMx_normed="2.760545" NOx_normed="75.422628" fuel_normed="86.915499" electricity_normed="0"
            traveltime="7.58" CO_perVeh="114.724696" CO2_perVeh="15135.431411" HC_perVeh="0.870608" PMx_perVeh="0.206641" NOx_perVeh="5.645780" fuel_perVeh="6.506082" electricity_perVeh="0"/>
        </edge>
    </interval>
</meandata>
