<?xml version="1.0" encoding="UTF-8"?>

<!-- generated on Fri Apr 17 14:01:34 2020 by SUMO Version 0.32.0
<?xml version="1.0" encoding="UTF-8"?>

<configuration xmlns:xsi="http://www.w3.org/2001/XMLSchema-instance" xsi:noNamespaceSchemaLocation="http://sumo.dlr.de/xsd/sumoConfiguration.xsd">

    <input>
        <net-file value="base.net.xml"/>
        <route-files value="trips.xml"/>
        <additional-files value="additional.xml"/>
    </input>

    <time>
        <begin value="0"/>
        <end value="22500"/>
    </time>

    <random_number>
        <seed value="86955"/>
    </random_number>

</configuration>
-->

<meandata xmlns:xsi="http://www.w3.org/2001/XMLSchema-instance" xsi:noNamespaceSchemaLocation="http://sumo.dlr.de/xsd/meandata_file.xsd">
    <interval begin="0.00" end="22500.00" id="mid">
        <edge id="1">
            <lane id="1_0" sampledSeconds="35384.23" CO_abs="2308548.590488" CO2_abs="145086337.607627" HC_abs="13948.008786" PMx_abs="2731.534275" NOx_abs="60594.109325" fuel_abs="62366.199419" electricity_abs="0"
            CO_normed="3693.677745" CO2_normed="232138.140172" HC_normed="22.316814" PMx_normed="4.370455" NOx_normed="96.950575" fuel_normed="99.785919" electricity_normed="0"
            traveltime="9.48" CO_perVeh="618.455635" CO2_perVeh="38868.345000" HC_perVeh="3.736644" PMx_perVeh="0.731773" NOx_perVeh="16.233043" fuel_perVeh="16.707782" electricity_perVeh="0"/>
            <lane id="1_1" sampledSeconds="35449.11" CO_abs="1516924.516263" CO2_abs="113310779.412505" HC_abs="9576.746210" PMx_abs="1993.884158" NOx_abs="46112.969263" fuel_abs="48707.292777" electricity_abs="0"
            CO_normed="2427.079226" CO2_normed="181297.247060" HC_normed="15.322794" PMx_normed="3.190215" NOx_normed="73.780751" fuel_normed="77.931668" electricity_normed="0"
            traveltime="8.49" CO_perVeh="363.394328" CO2_perVeh="27144.722128" HC_perVeh="2.294205" PMx_perVeh="0.477655" NOx_perVeh="11.046820" fuel_perVeh="11.668316" electricity_perVeh="0"/>
        </edge>
        <edge id="2">
            <lane id="2_0" sampledSeconds="335840.85" CO_abs="6528332.855869" CO2_abs="726479034.138694" HC_abs="46522.760222" PMx_abs="10554.383388" NOx_abs="276487.337600" fuel_abs="312282.362265" electricity_abs="0"
            CO_normed="1871.923400" CO2_normed="208309.400470" HC_normed="13.339860" PMx_normed="3.026346" NOx_normed="79.279523" fuel_normed="89.543330" electricity_normed="0"
            traveltime="43.08" CO_perVeh="837.462608" CO2_perVeh="93193.628490" HC_perVeh="5.967997" PMx_perVeh="1.353929" NOx_perVeh="35.468137" fuel_perVeh="40.059967" electricity_perVeh="0"/>
            <lane id="2_1" sampledSeconds="345566.55" CO_abs="6172737.094921" CO2_abs="723934329.575534" HC_abs="44831.031157" PMx_abs="10346.773031" NOx_abs="274024.894019" fuel_abs="311188.519661" electricity_abs="0"
            CO_normed="1769.960457" CO2_normed="207579.736079" HC_normed="12.854776" PMx_normed="2.966817" NOx_normed="78.573446" fuel_normed="89.229683" electricity_normed="0"
            traveltime="42.80" CO_perVeh="764.602014" CO2_perVeh="89671.994400" HC_perVeh="5.553111" PMx_perVeh="1.281630" NOx_perVeh="33.942801" fuel_perVeh="38.546169" electricity_perVeh="0"/>
        </edge>
        <edge id="3">
            <lane id="3_0" sampledSeconds="61231.58" CO_abs="895734.726155" CO2_abs="120306979.273472" HC_abs="6843.103801" PMx_abs="1628.666797" NOx_abs="44760.877404" fuel_abs="51714.890389" electricity_abs="0"
            CO_normed="1433.175562" CO2_normed="192491.166838" HC_normed="10.948966" PMx_normed="2.605867" NOx_normed="71.617404" fuel_normed="82.743825" electricity_normed="0"
            traveltime="7.57" CO_perVeh="110.734308" CO2_perVeh="14872.829753" HC_perVeh="0.845972" PMx_perVeh="0.201342" NOx_perVeh="5.533519" fuel_perVeh="6.393202" electricity_perVeh="0"/>
            <lane id="3_1" sampledSeconds="63310.18" CO_abs="955289.648892" CO2_abs="126088712.244088" HC_abs="7251.032664" PMx_abs="1720.578567" NOx_abs="47027.983294" fuel_abs="54200.204054" electricity_abs="0"
            CO_normed="1528.463438" CO2_normed="201741.939591" HC_normed="11.601652" PMx_normed="2.752926" NOx_normed="75.244773" fuel_normed="86.720326" electricity_normed="0"
            traveltime="7.58" CO_perVeh="114.378846" CO2_perVeh="15096.867681" HC_perVeh="0.868181" PMx_perVeh="0.206009" NOx_perVeh="5.630760" fuel_perVeh="6.489505" electricity_perVeh="0"/>
        </edge>
    </interval>
</meandata>
