<?xml version="1.0" encoding="UTF-8"?>

<!-- generated on Fri Apr 17 13:54:29 2020 by SUMO Version 0.32.0
<?xml version="1.0" encoding="UTF-8"?>

<configuration xmlns:xsi="http://www.w3.org/2001/XMLSchema-instance" xsi:noNamespaceSchemaLocation="http://sumo.dlr.de/xsd/sumoConfiguration.xsd">

    <input>
        <net-file value="base.net.xml"/>
        <route-files value="trips.xml"/>
        <additional-files value="additional.xml"/>
    </input>

    <time>
        <begin value="0"/>
        <end value="22500"/>
    </time>

    <random_number>
        <seed value="47074"/>
    </random_number>

</configuration>
-->

<meandata xmlns:xsi="http://www.w3.org/2001/XMLSchema-instance" xsi:noNamespaceSchemaLocation="http://sumo.dlr.de/xsd/meandata_file.xsd">
    <interval begin="0.00" end="22500.00" id="mid">
        <edge id="1">
            <lane id="1_0" sampledSeconds="35420.77" CO_abs="2327290.346508" CO2_abs="145544417.044954" HC_abs="14044.620990" PMx_abs="2745.852275" NOx_abs="60831.934674" fuel_abs="62563.107563" electricity_abs="0"
            CO_normed="3723.664554" CO2_normed="232871.067272" HC_normed="22.471394" PMx_normed="4.393364" NOx_normed="97.331095" fuel_normed="100.100972" electricity_normed="0"
            traveltime="9.51" CO_perVeh="624.573473" CO2_perVeh="39059.665296" HC_perVeh="3.769146" PMx_perVeh="0.736903" NOx_perVeh="16.325429" fuel_perVeh="16.790023" electricity_perVeh="0"/>
            <lane id="1_1" sampledSeconds="35467.48" CO_abs="1509998.385298" CO2_abs="112854929.728672" HC_abs="9534.122563" PMx_abs="1984.934838" NOx_abs="45918.752930" fuel_abs="48511.344110" electricity_abs="0"
            CO_normed="2415.997416" CO2_normed="180567.887566" HC_normed="15.254596" PMx_normed="3.175896" NOx_normed="73.470005" fuel_normed="77.618151" electricity_normed="0"
            traveltime="8.48" CO_perVeh="361.167856" CO2_perVeh="26993.123553" HC_perVeh="2.280412" PMx_perVeh="0.474765" NOx_perVeh="10.983043" fuel_perVeh="11.603150" electricity_perVeh="0"/>
        </edge>
        <edge id="2">
            <lane id="2_0" sampledSeconds="335398.27" CO_abs="6567979.953060" CO2_abs="727202774.629966" HC_abs="46722.043637" PMx_abs="10585.060953" NOx_abs="276933.546596" fuel_abs="312593.460732" electricity_abs="0"
            CO_normed="1883.291743" CO2_normed="208516.924625" HC_normed="13.397002" PMx_normed="3.035143" NOx_normed="79.407469" fuel_normed="89.632534" electricity_normed="0"
            traveltime="43.11" CO_perVeh="844.148236" CO2_perVeh="93463.582996" HC_perVeh="6.004941" PMx_perVeh="1.360443" NOx_perVeh="35.592826" fuel_perVeh="40.176009" electricity_perVeh="0"/>
            <lane id="2_1" sampledSeconds="345598.77" CO_abs="6020889.450434" CO2_abs="717857488.349390" HC_abs="43990.359427" PMx_abs="10196.708669" NOx_abs="271181.227354" fuel_abs="308576.369290" electricity_abs="0"
            CO_normed="1726.419914" CO2_normed="205837.272645" HC_normed="12.613723" PMx_normed="2.923787" NOx_normed="77.758058" fuel_normed="88.480679" electricity_normed="0"
            traveltime="42.73" CO_perVeh="744.430858" CO2_perVeh="88756.863991" HC_perVeh="5.439027" PMx_perVeh="1.260735" NOx_perVeh="33.529211" fuel_perVeh="38.152797" electricity_perVeh="0"/>
        </edge>
        <edge id="3">
            <lane id="3_0" sampledSeconds="61133.31" CO_abs="892624.871948" CO2_abs="119877085.492879" HC_abs="6818.911009" PMx_abs="1622.084043" NOx_abs="44597.410006" fuel_abs="51530.098305" electricity_abs="0"
            CO_normed="1428.199795" CO2_normed="191803.336789" HC_normed="10.910258" PMx_normed="2.595334" NOx_normed="71.355856" fuel_normed="82.448157" electricity_normed="0"
            traveltime="7.57" CO_perVeh="110.576006" CO2_perVeh="14850.056023" HC_perVeh="0.844709" PMx_perVeh="0.200939" NOx_perVeh="5.524609" fuel_perVeh="6.383412" electricity_perVeh="0"/>
            <lane id="3_1" sampledSeconds="63452.12" CO_abs="958036.942514" CO2_abs="126236254.794925" HC_abs="7265.975119" PMx_abs="1723.864506" NOx_abs="47093.115065" fuel_abs="54263.625396" electricity_abs="0"
            CO_normed="1532.859108" CO2_normed="201978.007672" HC_normed="11.625560" PMx_normed="2.758183" NOx_normed="75.348984" fuel_normed="86.821801" electricity_normed="0"
            traveltime="7.58" CO_perVeh="114.461871" CO2_perVeh="15082.130183" HC_perVeh="0.868105" PMx_perVeh="0.205959" NOx_perVeh="5.626470" fuel_perVeh="6.483170" electricity_perVeh="0"/>
        </edge>
    </interval>
</meandata>
