<?xml version="1.0" encoding="UTF-8"?>

<!-- generated on Thu Apr 16 20:19:35 2020 by SUMO Version 0.32.0
<?xml version="1.0" encoding="UTF-8"?>

<configuration xmlns:xsi="http://www.w3.org/2001/XMLSchema-instance" xsi:noNamespaceSchemaLocation="http://sumo.dlr.de/xsd/sumoConfiguration.xsd">

    <input>
        <net-file value="base.net.xml"/>
        <route-files value="base.rou.xml"/>
        <additional-files value="additional.xml"/>
    </input>

    <time>
        <begin value="0"/>
        <end value="50000"/>
    </time>

    <random_number>
        <seed value="86917"/>
    </random_number>

</configuration>
-->

<meandata xmlns:xsi="http://www.w3.org/2001/XMLSchema-instance" xsi:noNamespaceSchemaLocation="http://sumo.dlr.de/xsd/meandata_file.xsd">
    <interval begin="0.00" end="50000.00" id="mid">
        <edge id="1">
            <lane id="1_0" sampledSeconds="986426.78" CO_abs="90181227.875960" CO2_abs="2566236724.838650" HC_abs="471063.912582" PMx_abs="55356.910063" NOx_abs="1134179.279917" fuel_abs="1103141.379310" electricity_abs="0"
            CO_normed="32465.242035" CO2_normed="923845.220942" HC_normed="169.583009" PMx_normed="19.928488" NOx_normed="408.304541" fuel_normed="397.130897" electricity_normed="0"
            traveltime="95.71" CO_perVeh="8750.370913" CO2_perVeh="249004.407264" HC_perVeh="45.707783" PMx_perVeh="5.371334" NOx_perVeh="110.050502" fuel_perVeh="107.038865" electricity_perVeh="0"/>
            <lane id="1_1" sampledSeconds="957706.90" CO_abs="88107101.919997" CO2_abs="2618861714.338089" HC_abs="462983.378029" PMx_abs="56607.995465" NOx_abs="1159341.480511" fuel_abs="1125759.489366" electricity_abs="0"
            CO_normed="31718.556691" CO2_normed="942790.217162" HC_normed="166.674016" PMx_normed="20.378878" NOx_normed="417.362933" fuel_normed="405.273416" electricity_normed="0"
            traveltime="93.45" CO_perVeh="8596.785056" CO2_perVeh="255527.542715" HC_perVeh="45.174208" PMx_perVeh="5.523355" NOx_perVeh="113.119253" fuel_perVeh="109.842591" electricity_perVeh="0"/>
        </edge>
        <edge id="2">
            <lane id="2_0" sampledSeconds="231257.41" CO_abs="5142575.648421" CO2_abs="317978055.684332" HC_abs="29690.351100" PMx_abs="4464.473971" NOx_abs="120109.363425" fuel_abs="136687.206523" electricity_abs="0"
            CO_normed="371.379585" CO2_normed="22963.309939" HC_normed="2.144138" PMx_normed="0.322409" NOx_normed="8.673896" fuel_normed="9.871092" electricity_normed="0"
            traveltime="88.93" CO_perVeh="1977.635849" CO2_perVeh="122282.071282" HC_perVeh="11.417762" PMx_perVeh="1.716864" NOx_perVeh="46.189419" fuel_perVeh="52.564617" electricity_perVeh="0"/>
            <lane id="2_1" sampledSeconds="5441610.93" CO_abs="502241855.100262" CO2_abs="12253594380.574387" HC_abs="2574875.789178" PMx_abs="272006.342436" NOx_abs="5456921.734693" fuel_abs="5267470.563881" electricity_abs="0"
            CO_normed="36270.224240" CO2_normed="884913.536009" HC_normed="185.948904" PMx_normed="19.643387" NOx_normed="394.080607" fuel_normed="380.399078" electricity_normed="0"
            traveltime="706.33" CO_perVeh="65192.086032" CO2_perVeh="1590543.223248" HC_perVeh="334.224482" PMx_perVeh="35.307015" NOx_perVeh="708.320319" fuel_perVeh="683.729145" electricity_perVeh="0"/>
            <lane id="2_2" sampledSeconds="4791239.67" CO_abs="436491817.248503" CO2_abs="12961122791.294672" HC_abs="2293227.184774" PMx_abs="279640.401507" NOx_abs="5735175.137628" fuel_abs="5571546.499709" electricity_abs="0"
            CO_normed="31521.976772" CO2_normed="936008.867576" HC_normed="165.609185" PMx_normed="20.194693" NOx_normed="414.175135" fuel_normed="402.358423" electricity_normed="0"
            traveltime="468.91" CO_perVeh="42718.565730" CO2_perVeh="1268478.706838" HC_perVeh="224.433477" PMx_perVeh="27.367837" NOx_perVeh="561.289917" fuel_perVeh="545.275916" electricity_perVeh="0"/>
        </edge>
        <edge id="3">
            <lane id="3_0" sampledSeconds="475592.44" CO_abs="44010891.886278" CO2_abs="1349709487.166410" HC_abs="232293.515372" PMx_abs="29203.786850" NOx_abs="597887.731622" fuel_abs="580192.895273" electricity_abs="0"
            CO_normed="31687.842158" CO2_normed="971790.830760" HC_normed="167.251331" PMx_normed="21.026727" NOx_normed="430.479167" fuel_normed="417.738885" electricity_normed="0"
            traveltime="45.14" CO_perVeh="4177.053001" CO2_perVeh="128100.291143" HC_perVeh="22.046868" PMx_perVeh="2.771718" NOx_perVeh="56.745243" fuel_perVeh="55.065834" electricity_perVeh="0"/>
            <lane id="3_1" sampledSeconds="474759.99" CO_abs="43786838.805248" CO2_abs="1343469556.622430" HC_abs="231122.735008" PMx_abs="29049.543793" NOx_abs="595002.045836" fuel_abs="577510.578893" electricity_abs="0"
            CO_normed="31526.523940" CO2_normed="967298.080768" HC_normed="166.408369" PMx_normed="20.915672" NOx_normed="428.401473" fuel_normed="415.807617" electricity_normed="0"
            traveltime="45.10" CO_perVeh="4159.298020" CO2_perVeh="127615.749840" HC_perVeh="21.954276" PMx_perVeh="2.759407" NOx_perVeh="56.519057" fuel_perVeh="54.857548" electricity_perVeh="0"/>
        </edge>
        <edge id="4">
            <lane id="4_0" sampledSeconds="93618.50" CO_abs="7561832.593378" CO2_abs="505949548.399990" HC_abs="45422.644693" PMx_abs="9089.990941" NOx_abs="207068.960328" fuel_abs="217485.549704" electricity_abs="0"
            CO_normed="5444.519467" CO2_normed="364283.674848" HC_normed="32.704304" PMx_normed="6.544793" NOx_normed="149.089651" fuel_normed="156.589596" electricity_normed="0"
            traveltime="8.68" CO_perVeh="701.120155" CO2_perVeh="46910.774795" HC_perVeh="4.211510" PMx_perVeh="0.842808" NOx_perVeh="19.199079" fuel_perVeh="20.164887" electricity_perVeh="0"/>
            <lane id="4_1" sampledSeconds="89924.29" CO_abs="7421524.634576" CO2_abs="491413719.569788" HC_abs="44461.426841" PMx_abs="8876.723475" NOx_abs="201507.424730" fuel_abs="211237.215783" electricity_abs="0"
            CO_normed="5343.497737" CO2_normed="353817.878090" HC_normed="32.012227" PMx_normed="6.391241" NOx_normed="145.085346" fuel_normed="152.090795" electricity_normed="0"
            traveltime="8.72" CO_perVeh="719.344549" CO2_perVeh="47631.153660" HC_perVeh="4.309503" PMx_perVeh="0.860392" NOx_perVeh="19.531468" fuel_perVeh="20.474545" electricity_perVeh="0"/>
        </edge>
    </interval>
</meandata>
