<?xml version="1.0" encoding="UTF-8"?>

<!-- generated on Thu Apr 16 20:27:30 2020 by SUMO Version 0.32.0
<?xml version="1.0" encoding="UTF-8"?>

<configuration xmlns:xsi="http://www.w3.org/2001/XMLSchema-instance" xsi:noNamespaceSchemaLocation="http://sumo.dlr.de/xsd/sumoConfiguration.xsd">

    <input>
        <net-file value="base.net.xml"/>
        <route-files value="base.rou.xml"/>
        <additional-files value="additional.xml"/>
    </input>

    <time>
        <begin value="0"/>
        <end value="50000"/>
    </time>

    <random_number>
        <seed value="15613"/>
    </random_number>

</configuration>
-->

<meandata xmlns:xsi="http://www.w3.org/2001/XMLSchema-instance" xsi:noNamespaceSchemaLocation="http://sumo.dlr.de/xsd/meandata_file.xsd">
    <interval begin="0.00" end="50000.00" id="mid">
        <edge id="1">
            <lane id="1_0" sampledSeconds="983942.02" CO_abs="89867307.147190" CO2_abs="2543455221.537982" HC_abs="469087.695251" PMx_abs="54864.200779" NOx_abs="1123780.918710" fuel_abs="1093348.806738" electricity_abs="0"
            CO_normed="32352.230573" CO2_normed="915643.879754" HC_normed="168.871570" PMx_normed="19.751112" NOx_normed="404.561131" fuel_normed="393.605570" electricity_normed="0"
            traveltime="95.32" CO_perVeh="8706.304631" CO2_perVeh="246408.807360" HC_perVeh="45.445007" PMx_perVeh="5.315219" NOx_perVeh="108.871394" fuel_perVeh="105.923145" electricity_perVeh="0"/>
            <lane id="1_1" sampledSeconds="962523.64" CO_abs="88288840.582871" CO2_abs="2612041047.285040" HC_abs="463631.181984" PMx_abs="56424.382625" NOx_abs="1156035.641180" fuel_abs="1122827.929436" electricity_abs="0"
            CO_normed="31783.982610" CO2_normed="940334.777023" HC_normed="166.907226" PMx_normed="20.312778" NOx_normed="416.172831" fuel_normed="404.218055" electricity_normed="0"
            traveltime="93.81" CO_perVeh="8604.721660" CO2_perVeh="254572.220323" HC_perVeh="45.185974" PMx_perVeh="5.499179" NOx_perVeh="112.668428" fuel_perVeh="109.431971" electricity_perVeh="0"/>
        </edge>
        <edge id="2">
            <lane id="2_0" sampledSeconds="395564.87" CO_abs="14171983.549683" CO2_abs="624322856.637071" HC_abs="77481.704869" PMx_abs="9855.491988" NOx_abs="244719.211151" fuel_abs="268375.437004" electricity_abs="0"
            CO_normed="1023.453175" CO2_normed="45086.505193" HC_normed="5.595469" PMx_normed="0.711731" NOx_normed="17.672802" fuel_normed="19.381175" electricity_normed="0"
            traveltime="107.72" CO_perVeh="3859.209240" CO2_perVeh="170010.960632" HC_perVeh="21.099242" PMx_perVeh="2.683774" NOx_perVeh="66.640117" fuel_perVeh="73.082005" electricity_perVeh="0"/>
            <lane id="2_1" sampledSeconds="5619504.63" CO_abs="524248735.976040" CO2_abs="12000615858.635674" HC_abs="2668985.639308" PMx_abs="270252.447103" NOx_abs="5362763.687483" fuel_abs="5158744.790395" electricity_abs="0"
            CO_normed="37859.487453" CO2_normed="866644.274646" HC_normed="192.745202" PMx_normed="19.516726" NOx_normed="387.280828" fuel_normed="372.547267" electricity_normed="0"
            traveltime="843.23" CO_perVeh="78665.876804" CO2_perVeh="1800746.294513" HC_perVeh="400.493279" PMx_perVeh="40.552593" NOx_perVeh="804.706771" fuel_perVeh="774.092819" electricity_perVeh="0"/>
            <lane id="2_2" sampledSeconds="4856384.28" CO_abs="440391431.241366" CO2_abs="12940005013.944012" HC_abs="2310306.835879" PMx_abs="278997.421951" NOx_abs="5724314.317559" fuel_abs="5562472.946715" electricity_abs="0"
            CO_normed="31803.593831" CO2_normed="934483.812441" HC_normed="166.842620" PMx_normed="20.148259" NOx_normed="413.390803" fuel_normed="401.703162" electricity_normed="0"
            traveltime="475.64" CO_perVeh="43132.469807" CO2_perVeh="1267359.753089" HC_perVeh="226.274248" PMx_perVeh="27.325345" NOx_perVeh="560.646273" fuel_perVeh="544.795333" electricity_perVeh="0"/>
        </edge>
        <edge id="3">
            <lane id="3_0" sampledSeconds="476069.46" CO_abs="44122191.249085" CO2_abs="1350855756.277484" HC_abs="232825.594490" PMx_abs="29230.492533" NOx_abs="598401.938299" fuel_abs="580685.697224" electricity_abs="0"
            CO_normed="31767.977699" CO2_normed="972616.144520" HC_normed="167.634428" PMx_normed="21.045955" NOx_normed="430.849396" fuel_normed="418.093702" electricity_normed="0"
            traveltime="45.17" CO_perVeh="4186.820369" CO2_perVeh="128184.712391" HC_perVeh="22.093167" PMx_perVeh="2.773725" NOx_perVeh="56.783250" fuel_perVeh="55.102130" electricity_perVeh="0"/>
            <lane id="3_1" sampledSeconds="473894.12" CO_abs="43719010.794679" CO2_abs="1342198553.501998" HC_abs="230784.745432" PMx_abs="29022.601330" NOx_abs="594443.895215" fuel_abs="576964.195551" electricity_abs="0"
            CO_normed="31477.687772" CO2_normed="966382.958521" HC_normed="166.165017" PMx_normed="20.896273" NOx_normed="427.999605" fuel_normed="415.414221" electricity_normed="0"
            traveltime="45.04" CO_perVeh="4155.269090" CO2_perVeh="127569.129797" HC_perVeh="21.934913" PMx_perVeh="2.758450" NOx_perVeh="56.498862" fuel_perVeh="54.837505" electricity_perVeh="0"/>
        </edge>
        <edge id="4">
            <lane id="4_0" sampledSeconds="93896.52" CO_abs="7573722.771505" CO2_abs="507057075.147497" HC_abs="45502.928295" PMx_abs="9107.527475" NOx_abs="207503.485220" fuel_abs="217961.627368" electricity_abs="0"
            CO_normed="5453.080395" CO2_normed="365081.094106" HC_normed="32.762108" PMx_normed="6.557420" NOx_normed="149.402509" fuel_normed="156.932372" electricity_normed="0"
            traveltime="8.68" CO_perVeh="699.950971" CO2_perVeh="46861.378854" HC_perVeh="4.205306" PMx_perVeh="0.841703" NOx_perVeh="19.177130" fuel_perVeh="20.143654" electricity_perVeh="0"/>
            <lane id="4_1" sampledSeconds="89731.02" CO_abs="7409745.342172" CO2_abs="490400608.846709" HC_abs="44386.057782" PMx_abs="8859.703220" NOx_abs="201103.965937" fuel_abs="210801.724600" electricity_abs="0"
            CO_normed="5335.016646" CO2_normed="353088.438370" HC_normed="31.957962" PMx_normed="6.378986" NOx_normed="144.794855" fuel_normed="151.777242" electricity_normed="0"
            traveltime="8.72" CO_perVeh="719.981044" CO2_perVeh="47650.644650" HC_perVeh="4.312850" PMx_perVeh="0.860869" NOx_perVeh="19.540623" fuel_perVeh="20.482923" electricity_perVeh="0"/>
        </edge>
    </interval>
</meandata>
