<?xml version="1.0" encoding="UTF-8"?>

<!-- generated on Fri Apr 10 21:15:17 2020 by SUMO Version 0.32.0
<?xml version="1.0" encoding="UTF-8"?>

<configuration xmlns:xsi="http://www.w3.org/2001/XMLSchema-instance" xsi:noNamespaceSchemaLocation="http://sumo.dlr.de/xsd/sumoConfiguration.xsd">

    <input>
        <net-file value="base.net.xml"/>
        <route-files value="base.rou.xml"/>
        <additional-files value="additional.xml"/>
    </input>

    <time>
        <begin value="0"/>
        <end value="50000"/>
    </time>

    <random_number>
        <seed value="64892"/>
    </random_number>

</configuration>
-->

<meandata xmlns:xsi="http://www.w3.org/2001/XMLSchema-instance" xsi:noNamespaceSchemaLocation="http://sumo.dlr.de/xsd/meandata_file.xsd">
    <interval begin="0.00" end="50000.00" id="mid">
        <edge id="1">
            <lane id="1_0" sampledSeconds="1054274.13" CO_abs="76890662.971514" CO2_abs="1576676753.133911" HC_abs="386702.832687" PMx_abs="34412.323135" NOx_abs="696936.473560" fuel_abs="677779.886505" electricity_abs="0"
            CO_normed="27680.638670" CO2_normed="567603.631128" HC_normed="139.213020" PMx_normed="12.388436" NOx_normed="250.897130" fuel_normed="244.000759" electricity_normed="0"
            traveltime="131.28" CO_perVeh="9574.675091" CO2_perVeh="196332.910274" HC_perVeh="48.153493" PMx_perVeh="4.285134" NOx_perVeh="86.784793" fuel_perVeh="84.399353" electricity_perVeh="0"/>
            <lane id="1_1" sampledSeconds="1049988.24" CO_abs="75733342.067400" CO2_abs="1553304883.647875" HC_abs="380859.750911" PMx_abs="33763.187771" NOx_abs="686039.697397" fuel_abs="667732.978479" electricity_abs="0"
            CO_normed="27264.003144" CO2_normed="559189.758113" HC_normed="137.109510" PMx_normed="12.154748" NOx_normed="246.974291" fuel_normed="240.383872" electricity_normed="0"
            traveltime="130.39" CO_perVeh="9404.532604" CO2_perVeh="192888.706930" HC_perVeh="47.294994" PMx_perVeh="4.192698" NOx_perVeh="85.192103" fuel_perVeh="82.918783" electricity_perVeh="0"/>
        </edge>
        <edge id="2">
            <lane id="2_0" sampledSeconds="122642.98" CO_abs="3842670.582382" CO2_abs="247664616.215279" HC_abs="23229.683656" PMx_abs="3934.284233" NOx_abs="97045.145222" fuel_abs="106461.264916" electricity_abs="0"
            CO_normed="277.504796" CO2_normed="17885.508894" HC_normed="1.677570" PMx_normed="0.284121" NOx_normed="7.008275" fuel_normed="7.688276" electricity_normed="0"
            traveltime="96.18" CO_perVeh="3013.545252" CO2_perVeh="194226.518321" HC_perVeh="18.217461" PMx_perVeh="3.085392" NOx_perVeh="76.105909" fuel_perVeh="83.490331" electricity_perVeh="0"/>
            <lane id="2_1" sampledSeconds="5459879.32" CO_abs="398203467.551601" CO2_abs="7675889261.646064" HC_abs="1991245.568582" PMx_abs="170675.105663" NOx_abs="3409530.222626" fuel_abs="3299717.960565" electricity_abs="0"
            CO_normed="28756.920425" CO2_normed="554327.007862" HC_normed="143.801084" PMx_normed="12.325584" NOx_normed="246.224851" fuel_normed="238.294577" electricity_normed="0"
            traveltime="809.08" CO_perVeh="59008.475186" CO2_perVeh="1137465.034681" HC_perVeh="295.076197" PMx_perVeh="25.291788" NOx_perVeh="505.247181" fuel_perVeh="488.974460" electricity_perVeh="0"/>
            <lane id="2_2" sampledSeconds="5249407.52" CO_abs="372283742.695442" CO2_abs="7627171885.171149" HC_abs="1871943.075793" PMx_abs="165588.718526" NOx_abs="3368021.979709" fuel_abs="3278760.767224" electricity_abs="0"
            CO_normed="26885.084728" CO2_normed="550808.802139" HC_normed="135.185458" PMx_normed="11.958263" NOx_normed="243.227264" fuel_normed="236.781119" electricity_normed="0"
            traveltime="654.51" CO_perVeh="46417.149131" CO2_perVeh="950972.428392" HC_perVeh="233.397946" PMx_perVeh="20.645963" NOx_perVeh="419.932327" fuel_perVeh="408.803045" electricity_perVeh="0"/>
        </edge>
        <edge id="3">
            <lane id="3_0" sampledSeconds="548748.14" CO_abs="38291404.071420" CO2_abs="826370246.186746" HC_abs="193570.066880" PMx_abs="17948.114616" NOx_abs="365220.865662" fuel_abs="355237.399860" electricity_abs="0"
            CO_normed="27569.810931" CO2_normed="594986.577254" HC_normed="139.370448" PMx_normed="12.922643" NOx_normed="262.959023" fuel_normed="255.770928" electricity_normed="0"
            traveltime="66.01" CO_perVeh="4606.021005" CO2_perVeh="99402.954897" HC_perVeh="23.284281" PMx_perVeh="2.158954" NOx_perVeh="43.931922" fuel_perVeh="42.731025" electricity_perVeh="0"/>
            <lane id="3_1" sampledSeconds="548495.53" CO_abs="38204582.474665" CO2_abs="825375369.972898" HC_abs="193152.401659" PMx_abs="17924.840302" NOx_abs="364778.048182" fuel_abs="354809.692557" electricity_abs="0"
            CO_normed="27507.299382" CO2_normed="594270.266380" HC_normed="139.069729" PMx_normed="12.905885" NOx_normed="262.640195" fuel_normed="255.462979" electricity_normed="0"
            traveltime="65.90" CO_perVeh="4589.998642" CO2_perVeh="99162.759604" HC_perVeh="23.205836" PMx_perVeh="2.153537" NOx_perVeh="43.825391" fuel_perVeh="42.627766" electricity_perVeh="0"/>
        </edge>
        <edge id="4">
            <lane id="4_0" sampledSeconds="91789.77" CO_abs="7780393.912520" CO2_abs="415321044.055527" HC_abs="45250.911794" PMx_abs="7974.391116" NOx_abs="174887.992102" fuel_abs="178528.868195" electricity_abs="0"
            CO_normed="5601.883617" CO2_normed="299031.151720" HC_normed="32.580656" PMx_normed="5.741562" NOx_normed="125.919354" fuel_normed="128.540785" electricity_normed="0"
            traveltime="10.08" CO_perVeh="854.476347" CO2_perVeh="45612.344658" HC_perVeh="4.969650" PMx_perVeh="0.875782" NOx_perVeh="19.206952" fuel_perVeh="19.606809" electricity_perVeh="0"/>
            <lane id="4_1" sampledSeconds="77590.66" CO_abs="6920206.904639" CO2_abs="354275464.099074" HC_abs="39891.839811" PMx_abs="6862.942284" NOx_abs="149744.421644" fuel_abs="152288.099742" electricity_abs="0"
            CO_normed="4982.548971" CO2_normed="255078.334151" HC_normed="28.722125" PMx_normed="4.941318" NOx_normed="107.815984" fuel_normed="109.647432" electricity_normed="0"
            traveltime="10.48" CO_perVeh="935.047260" CO2_perVeh="47869.132611" HC_perVeh="5.390121" PMx_perVeh="0.927310" NOx_perVeh="20.233226" fuel_perVeh="20.576924" electricity_perVeh="0"/>
        </edge>
    </interval>
</meandata>
