<?xml version="1.0" encoding="UTF-8"?>

<!-- generated on Fri Apr 10 21:21:26 2020 by SUMO Version 0.32.0
<?xml version="1.0" encoding="UTF-8"?>

<configuration xmlns:xsi="http://www.w3.org/2001/XMLSchema-instance" xsi:noNamespaceSchemaLocation="http://sumo.dlr.de/xsd/sumoConfiguration.xsd">

    <input>
        <net-file value="base.net.xml"/>
        <route-files value="base.rou.xml"/>
        <additional-files value="additional.xml"/>
    </input>

    <time>
        <begin value="0"/>
        <end value="50000"/>
    </time>

    <random_number>
        <seed value="51211"/>
    </random_number>

</configuration>
-->

<meandata xmlns:xsi="http://www.w3.org/2001/XMLSchema-instance" xsi:noNamespaceSchemaLocation="http://sumo.dlr.de/xsd/meandata_file.xsd">
    <interval begin="0.00" end="50000.00" id="mid">
        <edge id="1">
            <lane id="1_0" sampledSeconds="1055885.81" CO_abs="77504720.289268" CO2_abs="1595541213.820404" HC_abs="389980.033424" PMx_abs="34973.909262" NOx_abs="705901.448672" fuel_abs="685888.862834" electricity_abs="0"
            CO_normed="27901.699304" CO2_normed="574394.836975" HC_normed="140.392812" PMx_normed="12.590607" NOx_normed="254.124522" fuel_normed="246.919991" electricity_normed="0"
            traveltime="131.93" CO_perVeh="9684.296055" CO2_perVeh="199364.547405" HC_perVeh="48.728414" PMx_perVeh="4.370027" NOx_perVeh="88.203126" fuel_perVeh="85.702532" electricity_perVeh="0"/>
            <lane id="1_1" sampledSeconds="1048025.01" CO_abs="75657477.791634" CO2_abs="1553869276.173945" HC_abs="380527.967536" PMx_abs="33762.698976" NOx_abs="686196.578827" fuel_abs="667975.530927" electricity_abs="0"
            CO_normed="27236.692005" CO2_normed="559392.939423" HC_normed="136.990068" PMx_normed="12.154572" NOx_normed="247.030768" fuel_normed="240.471191" electricity_normed="0"
            traveltime="129.66" CO_perVeh="9360.550235" CO2_perVeh="192248.959947" HC_perVeh="47.079962" PMx_perVeh="4.177214" NOx_perVeh="84.898119" fuel_perVeh="82.643761" electricity_perVeh="0"/>
        </edge>
        <edge id="2">
            <lane id="2_0" sampledSeconds="285185.84" CO_abs="10687339.090913" CO2_abs="534354866.438633" HC_abs="61044.132207" PMx_abs="8927.975149" NOx_abs="212787.346226" fuel_abs="229699.434920" electricity_abs="0"
            CO_normed="771.803826" CO2_normed="38589.318339" HC_normed="4.408403" PMx_normed="0.644748" NOx_normed="15.366789" fuel_normed="16.588124" electricity_normed="0"
            traveltime="114.74" CO_perVeh="4299.959432" CO2_perVeh="214993.108052" HC_perVeh="24.560584" PMx_perVeh="3.592094" NOx_perVeh="85.613168" fuel_perVeh="92.417602" electricity_perVeh="0"/>
            <lane id="2_1" sampledSeconds="5658399.57" CO_abs="424122694.122712" CO2_abs="7773416583.583845" HC_abs="2111765.708986" PMx_abs="176899.507265" NOx_abs="3473054.359663" fuel_abs="3341655.368689" electricity_abs="0"
            CO_normed="30628.720137" CO2_normed="561370.104331" HC_normed="152.504645" PMx_normed="12.775090" NOx_normed="250.812351" fuel_normed="241.323156" electricity_normed="0"
            traveltime="1020.90" CO_perVeh="76520.886249" CO2_perVeh="1402492.095809" HC_perVeh="381.008104" PMx_perVeh="31.916488" NOx_perVeh="626.613952" fuel_perVeh="602.906739" electricity_perVeh="0"/>
            <lane id="2_2" sampledSeconds="5240491.57" CO_abs="371427290.606235" CO2_abs="7612921196.157826" HC_abs="1867711.425457" PMx_abs="165248.539980" NOx_abs="3361573.412112" fuel_abs="3272634.600664" electricity_abs="0"
            CO_normed="26823.234628" CO2_normed="549779.665119" HC_normed="134.879862" PMx_normed="11.933696" NOx_normed="242.761570" fuel_normed="236.338707" electricity_normed="0"
            traveltime="653.71" CO_perVeh="46332.740547" CO2_perVeh="949654.243260" HC_perVeh="232.982850" PMx_perVeh="20.613503" NOx_perVeh="419.330816" fuel_perVeh="408.236373" electricity_perVeh="0"/>
        </edge>
        <edge id="3">
            <lane id="3_0" sampledSeconds="549042.95" CO_abs="38326663.865719" CO2_abs="826809335.410464" HC_abs="193741.390830" PMx_abs="17962.730173" NOx_abs="365441.281237" fuel_abs="355426.159795" electricity_abs="0"
            CO_normed="27595.197983" CO2_normed="595302.721496" HC_normed="139.493801" PMx_normed="12.933166" NOx_normed="263.117722" fuel_normed="255.906835" electricity_normed="0"
            traveltime="66.15" CO_perVeh="4617.444723" CO2_perVeh="99610.715303" HC_perVeh="23.341196" PMx_perVeh="2.164079" NOx_perVeh="44.026919" fuel_perVeh="42.820337" electricity_perVeh="0"/>
            <lane id="3_1" sampledSeconds="548308.19" CO_abs="38238316.469323" CO2_abs="826630510.764069" HC_abs="193335.279926" PMx_abs="17949.054108" NOx_abs="365318.424434" fuel_abs="355349.231669" electricity_abs="0"
            CO_normed="27531.587858" CO2_normed="595173.967750" HC_normed="139.201402" PMx_normed="12.923319" NOx_normed="263.029266" fuel_normed="255.851447" electricity_normed="0"
            traveltime="65.80" CO_perVeh="4588.698092" CO2_perVeh="99197.825586" HC_perVeh="23.200740" PMx_perVeh="2.153933" NOx_perVeh="43.839167" fuel_perVeh="42.642838" electricity_perVeh="0"/>
        </edge>
        <edge id="4">
            <lane id="4_0" sampledSeconds="93945.33" CO_abs="7915837.170548" CO2_abs="424946315.955248" HC_abs="46096.882081" PMx_abs="8154.890467" NOx_abs="178888.916629" fuel_abs="182666.334423" electricity_abs="0"
            CO_normed="5699.402763" CO2_normed="305961.347488" HC_normed="33.189755" PMx_normed="5.871521" NOx_normed="128.800020" fuel_normed="131.519761" electricity_normed="0"
            traveltime="10.03" CO_perVeh="844.731368" CO2_perVeh="45347.759805" HC_perVeh="4.919187" PMx_perVeh="0.870242" NOx_perVeh="19.089968" fuel_perVeh="19.493072" electricity_perVeh="0"/>
            <lane id="4_1" sampledSeconds="75387.07" CO_abs="6781845.586616" CO2_abs="344924765.165280" HC_abs="39039.485554" PMx_abs="6686.734965" NOx_abs="145847.772939" fuel_abs="148268.655939" electricity_abs="0"
            CO_normed="4882.928822" CO2_normed="248345.830919" HC_normed="28.108430" PMx_normed="4.814449" NOx_normed="105.010397" fuel_normed="106.753432" electricity_normed="0"
            traveltime="10.57" CO_perVeh="950.549197" CO2_perVeh="48344.945982" HC_perVeh="5.471807" PMx_perVeh="0.937218" NOx_perVeh="20.442147" fuel_perVeh="20.781460" electricity_perVeh="0"/>
        </edge>
    </interval>
</meandata>
