<?xml version="1.0" encoding="UTF-8"?>

<!-- generated on Fri Apr 10 21:31:22 2020 by SUMO Version 0.32.0
<?xml version="1.0" encoding="UTF-8"?>

<configuration xmlns:xsi="http://www.w3.org/2001/XMLSchema-instance" xsi:noNamespaceSchemaLocation="http://sumo.dlr.de/xsd/sumoConfiguration.xsd">

    <input>
        <net-file value="base.net.xml"/>
        <route-files value="base.rou.xml"/>
        <additional-files value="additional.xml"/>
    </input>

    <time>
        <begin value="0"/>
        <end value="50000"/>
    </time>

    <random_number>
        <seed value="56163"/>
    </random_number>

</configuration>
-->

<meandata xmlns:xsi="http://www.w3.org/2001/XMLSchema-instance" xsi:noNamespaceSchemaLocation="http://sumo.dlr.de/xsd/meandata_file.xsd">
    <interval begin="0.00" end="50000.00" id="mid">
        <edge id="1">
            <lane id="1_0" sampledSeconds="1056709.76" CO_abs="77542241.261716" CO2_abs="1607479541.724778" HC_abs="390465.741153" PMx_abs="35326.730678" NOx_abs="711523.629279" fuel_abs="691020.315772" electricity_abs="0"
            CO_normed="27915.206854" CO2_normed="578692.635021" HC_normed="140.567667" PMx_normed="12.717623" NOx_normed="256.148507" fuel_normed="248.767314" electricity_normed="0"
            traveltime="132.76" CO_perVeh="9742.168988" CO2_perVeh="201958.791565" HC_perVeh="49.056916" PMx_perVeh="4.438342" NOx_perVeh="89.393643" fuel_perVeh="86.817670" electricity_perVeh="0"/>
            <lane id="1_1" sampledSeconds="1045468.54" CO_abs="75377462.276970" CO2_abs="1549992857.908961" HC_abs="379164.149773" PMx_abs="33669.131147" NOx_abs="684385.807129" fuel_abs="666309.080816" electricity_abs="0"
            CO_normed="27135.886420" CO2_normed="557997.428847" HC_normed="136.499094" PMx_normed="12.120887" NOx_normed="246.378891" fuel_normed="239.871269" electricity_normed="0"
            traveltime="128.99" CO_perVeh="9300.141483" CO2_perVeh="191239.562081" HC_perVeh="46.781626" PMx_perVeh="4.154129" NOx_perVeh="84.440158" fuel_perVeh="82.209835" electricity_perVeh="0"/>
        </edge>
        <edge id="2">
            <lane id="2_0" sampledSeconds="2624229.97" CO_abs="191559680.966284" CO2_abs="3670285544.026221" HC_abs="957644.613876" PMx_abs="82518.707699" NOx_abs="1625966.735418" fuel_abs="1577786.201093" electricity_abs="0"
            CO_normed="13833.798425" CO2_normed="265055.726349" HC_normed="69.157886" PMx_normed="5.959225" NOx_normed="117.421871" fuel_normed="113.942434" electricity_normed="0"
            traveltime="670.66" CO_perVeh="48955.977648" CO2_perVeh="937997.057357" HC_perVeh="244.740585" PMx_perVeh="21.088906" NOx_perVeh="415.540425" fuel_perVeh="403.227159" electricity_perVeh="0"/>
            <lane id="2_1" sampledSeconds="5896553.18" CO_abs="455300284.941041" CO2_abs="7914526695.780722" HC_abs="2257335.621888" PMx_abs="184967.063288" NOx_abs="3560349.655170" fuel_abs="3402329.542619" electricity_abs="0"
            CO_normed="32880.261300" CO2_normed="571560.603908" HC_normed="163.017216" PMx_normed="13.357702" NOx_normed="257.116525" fuel_normed="245.704842" electricity_normed="0"
            traveltime="1434.28" CO_perVeh="110747.142471" CO2_perVeh="1925127.755369" HC_perVeh="549.073827" PMx_perVeh="44.991348" NOx_perVeh="866.018677" fuel_perVeh="827.581899" electricity_perVeh="0"/>
            <lane id="2_2" sampledSeconds="5234937.60" CO_abs="371231656.837483" CO2_abs="7602968656.065486" HC_abs="1866590.233391" PMx_abs="165074.657302" NOx_abs="3357363.903480" fuel_abs="3268356.405863" electricity_abs="0"
            CO_normed="26809.106612" CO2_normed="549060.926015" HC_normed="134.798893" PMx_normed="11.921139" NOx_normed="242.457574" fuel_normed="236.029750" electricity_normed="0"
            traveltime="654.96" CO_perVeh="46446.071148" CO2_perVeh="951233.593992" HC_perVeh="233.535533" PMx_perVeh="20.653059" NOx_perVeh="420.051361" fuel_perVeh="408.915327" electricity_perVeh="0"/>
        </edge>
        <edge id="3">
            <lane id="3_0" sampledSeconds="549362.75" CO_abs="38269489.992740" CO2_abs="824909774.364794" HC_abs="193436.879239" PMx_abs="17925.592792" NOx_abs="364623.924603" fuel_abs="354609.603142" electricity_abs="0"
            CO_normed="27554.032795" CO2_normed="593935.037543" HC_normed="139.274553" PMx_normed="12.906427" NOx_normed="262.529226" fuel_normed="255.318914" electricity_normed="0"
            traveltime="66.34" CO_perVeh="4621.175719" CO2_perVeh="99610.760959" HC_perVeh="23.358185" PMx_perVeh="2.164578" NOx_perVeh="44.029623" fuel_perVeh="42.820359" electricity_perVeh="0"/>
            <lane id="3_1" sampledSeconds="548578.75" CO_abs="38265065.890087" CO2_abs="826632440.954998" HC_abs="193457.550234" PMx_abs="17954.909524" NOx_abs="365348.519698" fuel_abs="355350.076208" electricity_abs="0"
            CO_normed="27550.847441" CO2_normed="595175.357488" HC_normed="139.289436" PMx_normed="12.927535" NOx_normed="263.050934" fuel_normed="255.852055" electricity_normed="0"
            traveltime="65.95" CO_perVeh="4600.420557" CO2_perVeh="99381.950244" HC_perVeh="23.258449" PMx_perVeh="2.158630" NOx_perVeh="43.924055" fuel_perVeh="42.721991" electricity_perVeh="0"/>
        </edge>
        <edge id="4">
            <lane id="4_0" sampledSeconds="97165.17" CO_abs="8118891.922486" CO2_abs="438848738.109929" HC_abs="47349.864512" PMx_abs="8410.589638" NOx_abs="184643.490103" fuel_abs="188642.365733" electricity_abs="0"
            CO_normed="5845.602184" CO2_normed="315971.091439" HC_normed="34.091902" PMx_normed="6.055625" NOx_normed="132.943313" fuel_normed="135.822503" electricity_normed="0"
            traveltime="9.97" CO_perVeh="832.803772" CO2_perVeh="45015.365154" HC_perVeh="4.856962" PMx_perVeh="0.862725" NOx_perVeh="18.939998" fuel_perVeh="19.350187" electricity_perVeh="0"/>
            <lane id="4_1" sampledSeconds="71954.58" CO_abs="6556968.950452" CO2_abs="329654850.200707" HC_abs="37653.703571" PMx_abs="6399.676164" NOx_abs="139486.388933" fuel_abs="141704.808424" electricity_abs="0"
            CO_normed="4721.017644" CO2_normed="237351.492145" HC_normed="27.110667" PMx_normed="4.607767" NOx_normed="100.430200" fuel_normed="102.027462" electricity_normed="0"
            traveltime="10.71" CO_perVeh="975.570352" CO2_perVeh="49047.280932" HC_perVeh="5.602259" PMx_perVeh="0.952168" NOx_perVeh="20.753306" fuel_perVeh="21.083371" electricity_perVeh="0"/>
        </edge>
    </interval>
</meandata>
