<?xml version="1.0" encoding="UTF-8"?>

<!-- generated on Fri Apr 10 21:12:28 2020 by SUMO Version 0.32.0
<?xml version="1.0" encoding="UTF-8"?>

<configuration xmlns:xsi="http://www.w3.org/2001/XMLSchema-instance" xsi:noNamespaceSchemaLocation="http://sumo.dlr.de/xsd/sumoConfiguration.xsd">

    <input>
        <net-file value="base.net.xml"/>
        <route-files value="base.rou.xml"/>
        <additional-files value="additional.xml"/>
    </input>

    <time>
        <begin value="0"/>
        <end value="50000"/>
    </time>

    <random_number>
        <seed value="57262"/>
    </random_number>

</configuration>
-->

<meandata xmlns:xsi="http://www.w3.org/2001/XMLSchema-instance" xsi:noNamespaceSchemaLocation="http://sumo.dlr.de/xsd/meandata_file.xsd">
    <interval begin="0.00" end="50000.00" id="mid">
        <edge id="1">
            <lane id="1_0" sampledSeconds="1051788.60" CO_abs="75898731.340923" CO2_abs="1553263509.734864" HC_abs="381612.093644" PMx_abs="33787.994267" NOx_abs="686161.882354" fuel_abs="667715.299346" electricity_abs="0"
            CO_normed="27323.543283" CO2_normed="559174.863505" HC_normed="137.380354" PMx_normed="12.163678" NOx_normed="247.018278" fuel_normed="240.377508" electricity_normed="0"
            traveltime="131.33" CO_perVeh="9476.831021" CO2_perVeh="193942.844009" HC_perVeh="47.648666" PMx_perVeh="4.218820" NOx_perVeh="85.675216" fuel_perVeh="83.371948" electricity_perVeh="0"/>
            <lane id="1_1" sampledSeconds="1050296.98" CO_abs="75786055.521312" CO2_abs="1554842004.501074" HC_abs="381135.588934" PMx_abs="33795.359320" NOx_abs="686723.426781" fuel_abs="668393.735804" electricity_abs="0"
            CO_normed="27282.979988" CO2_normed="559743.121620" HC_normed="137.208812" PMx_normed="12.166329" NOx_normed="247.220434" fuel_normed="240.621745" electricity_normed="0"
            traveltime="130.38" CO_perVeh="9407.564333" CO2_perVeh="193007.487775" HC_perVeh="47.311574" PMx_perVeh="4.195126" NOx_perVeh="85.245165" fuel_perVeh="82.969842" electricity_perVeh="0"/>
        </edge>
        <edge id="2">
            <lane id="2_1" sampledSeconds="5259425.95" CO_abs="373252132.822600" CO2_abs="7629510070.975851" HC_abs="1876401.762909" PMx_abs="165732.518023" NOx_abs="3369456.521486" fuel_abs="3279766.513723" electricity_abs="0"
            CO_normed="26955.018619" CO2_normed="550977.658085" HC_normed="135.507449" PMx_normed="11.968647" NOx_normed="243.330862" fuel_normed="236.853750" electricity_normed="0"
            traveltime="658.14" CO_perVeh="46707.024586" CO2_perVeh="954721.174040" HC_perVeh="234.804133" PMx_perVeh="20.738991" NOx_perVeh="421.638016" fuel_perVeh="410.414628" electricity_perVeh="0"/>
            <lane id="2_2" sampledSeconds="5250429.17" CO_abs="372131752.761892" CO2_abs="7626490732.734006" HC_abs="1871232.857101" PMx_abs="165545.429553" NOx_abs="3367556.813910" fuel_abs="3278467.893962" electricity_abs="0"
            CO_normed="26874.108524" CO2_normed="550759.611592" HC_normed="135.134168" PMx_normed="11.955136" NOx_normed="243.193672" fuel_normed="236.759968" electricity_normed="0"
            traveltime="653.48" CO_perVeh="46316.598451" CO2_perVeh="949215.180481" HC_perVeh="232.899075" PMx_perVeh="20.604265" NOx_perVeh="419.135899" fuel_perVeh="408.047633" electricity_perVeh="0"/>
        </edge>
        <edge id="3">
            <lane id="3_0" sampledSeconds="549219.20" CO_abs="38295770.565939" CO2_abs="825718914.971975" HC_abs="193575.741315" PMx_abs="17943.583458" NOx_abs="364985.255201" fuel_abs="354957.423577" electricity_abs="0"
            CO_normed="27572.954807" CO2_normed="594517.618780" HC_normed="139.374534" PMx_normed="12.919380" NOx_normed="262.789384" fuel_normed="255.569345" electricity_normed="0"
            traveltime="66.29" CO_perVeh="4622.386829" CO2_perVeh="99666.155841" HC_perVeh="23.365033" PMx_perVeh="2.165831" NOx_perVeh="44.054553" fuel_perVeh="42.844170" electricity_perVeh="0"/>
            <lane id="3_1" sampledSeconds="548355.15" CO_abs="38233486.937221" CO2_abs="825992206.822524" HC_abs="193298.069536" PMx_abs="17936.851350" NOx_abs="365041.945710" fuel_abs="355074.858777" electricity_abs="0"
            CO_normed="27528.110595" CO2_normed="594714.388912" HC_normed="139.174610" PMx_normed="12.914533" NOx_normed="262.830201" fuel_normed="255.653898" electricity_normed="0"
            traveltime="65.78" CO_perVeh="4586.632190" CO2_perVeh="99089.116576" HC_perVeh="23.188760" PMx_perVeh="2.151772" NOx_perVeh="43.791798" fuel_perVeh="42.596109" electricity_perVeh="0"/>
        </edge>
        <edge id="4">
            <lane id="4_0" sampledSeconds="86339.52" CO_abs="7431320.746099" CO2_abs="391590827.450719" HC_abs="43101.080043" PMx_abs="7538.871661" NOx_abs="165076.487311" fuel_abs="168328.302246" electricity_abs="0"
            CO_normed="5350.550937" CO2_normed="281945.395765" HC_normed="31.032778" PMx_normed="5.427988" NOx_normed="118.855071" fuel_normed="121.196378" electricity_normed="0"
            traveltime="10.19" CO_perVeh="877.192277" CO2_perVeh="46223.337877" HC_perVeh="5.087647" PMx_perVeh="0.889888" NOx_perVeh="19.485610" fuel_perVeh="19.869454" electricity_perVeh="0"/>
            <lane id="4_1" sampledSeconds="82782.84" CO_abs="7256989.155683" CO2_abs="377314513.986754" HC_abs="41970.782806" PMx_abs="7289.891808" NOx_abs="159297.000358" fuel_abs="162191.555795" electricity_abs="0"
            CO_normed="5225.032192" CO2_normed="271666.450070" HC_normed="30.218964" PMx_normed="5.248722" NOx_normed="114.693840" fuel_normed="116.777920" electricity_normed="0"
            traveltime="10.32" CO_perVeh="904.661841" CO2_perVeh="47036.317056" HC_perVeh="5.232110" PMx_perVeh="0.908764" NOx_perVeh="19.858086" fuel_perVeh="20.218924" electricity_perVeh="0"/>
        </edge>
    </interval>
</meandata>
