<?xml version="1.0" encoding="UTF-8"?>

<!-- generated on Fri Apr 10 21:27:55 2020 by SUMO Version 0.32.0
<?xml version="1.0" encoding="UTF-8"?>

<configuration xmlns:xsi="http://www.w3.org/2001/XMLSchema-instance" xsi:noNamespaceSchemaLocation="http://sumo.dlr.de/xsd/sumoConfiguration.xsd">

    <input>
        <net-file value="base.net.xml"/>
        <route-files value="base.rou.xml"/>
        <additional-files value="additional.xml"/>
    </input>

    <time>
        <begin value="0"/>
        <end value="50000"/>
    </time>

    <random_number>
        <seed value="76698"/>
    </random_number>

</configuration>
-->

<meandata xmlns:xsi="http://www.w3.org/2001/XMLSchema-instance" xsi:noNamespaceSchemaLocation="http://sumo.dlr.de/xsd/meandata_file.xsd">
    <interval begin="0.00" end="50000.00" id="mid">
        <edge id="1">
            <lane id="1_0" sampledSeconds="1056185.00" CO_abs="77645299.739885" CO2_abs="1601743305.902011" HC_abs="390782.771338" PMx_abs="35167.966678" NOx_abs="708841.390623" fuel_abs="688554.801230" electricity_abs="0"
            CO_normed="27952.307906" CO2_normed="576627.590125" HC_normed="140.681798" PMx_normed="12.660468" NOx_normed="255.182901" fuel_normed="247.879728" electricity_normed="0"
            traveltime="132.45" CO_perVeh="9736.896891" CO2_perVeh="200862.247523" HC_perVeh="49.005047" PMx_perVeh="4.410143" NOx_perVeh="88.890320" fuel_perVeh="86.346336" electricity_perVeh="0"/>
            <lane id="1_1" sampledSeconds="1046825.33" CO_abs="75510080.089097" CO2_abs="1551660145.885094" HC_abs="379807.279958" PMx_abs="33716.863405" NOx_abs="685203.520920" fuel_abs="667025.838356" electricity_abs="0"
            CO_normed="27183.628832" CO2_normed="558597.652519" HC_normed="136.730621" PMx_normed="12.138071" NOx_normed="246.673268" fuel_normed="240.129302" electricity_normed="0"
            traveltime="129.48" CO_perVeh="9339.624930" CO2_perVeh="191920.386854" HC_perVeh="46.977272" PMx_perVeh="4.170342" NOx_perVeh="84.750855" fuel_perVeh="82.502510" electricity_perVeh="0"/>
        </edge>
        <edge id="2">
            <lane id="2_0" sampledSeconds="492032.64" CO_abs="23926765.629111" CO2_abs="834495783.244173" HC_abs="128304.398358" PMx_abs="15236.532850" NOx_abs="342348.677761" fuel_abs="358722.980949" electricity_abs="0"
            CO_normed="1727.910858" CO2_normed="60264.489863" HC_normed="9.265714" PMx_normed="1.100331" NOx_normed="24.723275" fuel_normed="25.905772" electricity_normed="0"
            traveltime="159.77" CO_perVeh="7769.398367" CO2_perVeh="270973.949256" HC_perVeh="41.662463" PMx_perVeh="4.947543" NOx_perVeh="111.166018" fuel_perVeh="116.483013" electricity_perVeh="0"/>
            <lane id="2_1" sampledSeconds="5756546.23" CO_abs="437107998.622649" CO2_abs="7829641276.958637" HC_abs="2172329.914039" PMx_abs="180193.260048" NOx_abs="3508196.966627" fuel_abs="3365831.098246" electricity_abs="0"
            CO_normed="31566.475327" CO2_normed="565430.463331" HC_normed="156.878389" PMx_normed="13.012954" NOx_normed="253.350232" fuel_normed="243.069046" electricity_normed="0"
            traveltime="1164.11" CO_perVeh="88393.485267" CO2_perVeh="1583337.031223" HC_perVeh="439.296039" PMx_perVeh="36.439302" NOx_perVeh="709.439676" fuel_perVeh="680.649960" electricity_perVeh="0"/>
            <lane id="2_2" sampledSeconds="5239431.14" CO_abs="371523659.691065" CO2_abs="7605784655.945066" HC_abs="1867985.240614" PMx_abs="165158.503690" NOx_abs="3358730.904526" fuel_abs="3269567.044974" electricity_abs="0"
            CO_normed="26830.194080" CO2_normed="549264.288092" HC_normed="134.899636" PMx_normed="11.927194" NOx_normed="242.556294" fuel_normed="236.117179" electricity_normed="0"
            traveltime="655.80" CO_perVeh="46502.433739" CO2_perVeh="951991.852393" HC_perVeh="233.809766" PMx_perVeh="20.672364" NOx_perVeh="420.401655" fuel_perVeh="409.241298" electricity_perVeh="0"/>
        </edge>
        <edge id="3">
            <lane id="3_0" sampledSeconds="549068.06" CO_abs="38307915.823205" CO2_abs="825952002.215591" HC_abs="193635.969735" PMx_abs="17946.194902" NOx_abs="365072.681926" fuel_abs="355057.627250" electricity_abs="0"
            CO_normed="27581.699393" CO2_normed="594685.441595" HC_normed="139.417898" PMx_normed="12.921260" NOx_normed="262.852331" fuel_normed="255.641492" electricity_normed="0"
            traveltime="66.20" CO_perVeh="4618.999694" CO2_perVeh="99589.653038" HC_perVeh="23.347772" PMx_perVeh="2.163873" NOx_perVeh="44.018855" fuel_perVeh="42.811284" electricity_perVeh="0"/>
            <lane id="3_1" sampledSeconds="548680.45" CO_abs="38218886.914683" CO2_abs="825552087.484814" HC_abs="193221.868224" PMx_abs="17930.566211" NOx_abs="364866.238825" fuel_abs="354885.661887" electricity_abs="0"
            CO_normed="27517.598579" CO2_normed="594397.502989" HC_normed="139.119745" PMx_normed="12.910008" NOx_normed="262.703692" fuel_normed="255.517677" electricity_normed="0"
            traveltime="66.04" CO_perVeh="4600.116372" CO2_perVeh="99365.417998" HC_perVeh="23.256645" PMx_perVeh="2.158166" NOx_perVeh="43.916171" fuel_perVeh="42.714885" electricity_perVeh="0"/>
        </edge>
        <edge id="4">
            <lane id="4_0" sampledSeconds="95375.81" CO_abs="8012035.201510" CO2_abs="431370297.584156" HC_abs="46686.304543" PMx_abs="8273.389679" NOx_abs="181549.836282" fuel_abs="185427.719122" electricity_abs="0"
            CO_normed="5768.665345" CO2_normed="310586.614261" HC_normed="33.614139" PMx_normed="5.956841" NOx_normed="130.715882" fuel_normed="133.507958" electricity_normed="0"
            traveltime="10.00" CO_perVeh="840.159782" CO2_perVeh="45234.446213" HC_perVeh="4.895629" PMx_perVeh="0.867566" NOx_perVeh="19.037719" fuel_perVeh="19.444362" electricity_perVeh="0"/>
            <lane id="4_1" sampledSeconds="73715.97" CO_abs="6672849.987342" CO2_abs="337538468.318055" HC_abs="38368.658615" PMx_abs="6549.798921" NOx_abs="142784.289580" fuel_abs="145093.616949" electricity_abs="0"
            CO_normed="4804.451991" CO2_normed="243027.697189" HC_normed="27.625434" PMx_normed="4.715855" NOx_normed="102.804688" fuel_normed="104.467404" electricity_normed="0"
            traveltime="10.63" CO_perVeh="961.956239" CO2_perVeh="48659.453764" HC_perVeh="5.531215" PMx_perVeh="0.944217" NOx_perVeh="20.583744" fuel_perVeh="20.916656" electricity_perVeh="0"/>
        </edge>
    </interval>
</meandata>
