<?xml version="1.0" encoding="UTF-8"?>

<!-- generated on Wed Apr  8 21:47:30 2020 by SUMO Version 0.32.0
<?xml version="1.0" encoding="UTF-8"?>

<configuration xmlns:xsi="http://www.w3.org/2001/XMLSchema-instance" xsi:noNamespaceSchemaLocation="http://sumo.dlr.de/xsd/sumoConfiguration.xsd">

    <input>
        <net-file value="base.net.xml"/>
        <route-files value="base.rou.xml"/>
        <additional-files value="additional.xml"/>
    </input>

    <time>
        <begin value="0"/>
        <end value="50000"/>
    </time>

</configuration>
-->

<meandata xmlns:xsi="http://www.w3.org/2001/XMLSchema-instance" xsi:noNamespaceSchemaLocation="http://sumo.dlr.de/xsd/meandata_file.xsd">
    <interval begin="0.00" end="50000.00" id="mid">
        <edge id="1">
            <lane id="1_0" sampledSeconds="1053417.31" CO_abs="76898337.480293" CO2_abs="1578811939.920852" HC_abs="386791.270260" PMx_abs="34462.321555" NOx_abs="697886.983979" fuel_abs="678697.671894" electricity_abs="0"
            CO_normed="27683.401493" CO2_normed="568372.298372" HC_normed="139.244857" PMx_normed="12.406436" NOx_normed="251.239314" fuel_normed="244.331162" electricity_normed="0"
            traveltime="130.94" CO_perVeh="9558.604064" CO2_perVeh="196249.213178" HC_perVeh="48.078863" PMx_perVeh="4.283730" NOx_perVeh="86.748629" fuel_perVeh="84.363363" electricity_perVeh="0"/>
            <lane id="1_1" sampledSeconds="1049245.04" CO_abs="75722815.227476" CO2_abs="1554832883.125323" HC_abs="380848.084038" PMx_abs="33789.407837" NOx_abs="686680.725089" fuel_abs="668389.769899" electricity_abs="0"
            CO_normed="27260.213482" CO2_normed="559739.837925" HC_normed="137.105310" PMx_normed="12.164187" NOx_normed="247.205061" fuel_normed="240.620317" electricity_normed="0"
            traveltime="130.00" CO_perVeh="9381.932545" CO2_perVeh="192641.242731" HC_perVeh="47.186453" PMx_perVeh="4.186452" NOx_perVeh="85.078615" fuel_perVeh="82.812396" electricity_perVeh="0"/>
        </edge>
        <edge id="2">
            <lane id="2_0" sampledSeconds="128724.71" CO_abs="4115939.516810" CO2_abs="258150354.250082" HC_abs="24720.142538" PMx_abs="4127.272798" NOx_abs="101357.436960" fuel_abs="110968.721997" electricity_abs="0"
            CO_normed="297.239363" CO2_normed="18642.753767" HC_normed="1.785206" PMx_normed="0.298058" NOx_normed="7.319695" fuel_normed="8.013789" electricity_normed="0"
            traveltime="97.88" CO_perVeh="3129.694712" CO2_perVeh="196293.408911" HC_perVeh="18.796802" PMx_perVeh="3.138312" NOx_perVeh="77.070577" fuel_perVeh="84.378845" electricity_perVeh="0"/>
            <lane id="2_1" sampledSeconds="5463601.11" CO_abs="398776241.918329" CO2_abs="7681404117.458340" HC_abs="1993992.392999" PMx_abs="170888.945596" NOx_abs="3412419.844279" fuel_abs="3302088.813035" electricity_abs="0"
            CO_normed="28798.284271" CO2_normed="554725.272274" HC_normed="143.999451" PMx_normed="12.341027" NOx_normed="246.433529" fuel_normed="238.465792" electricity_normed="0"
            traveltime="811.82" CO_perVeh="59253.246242" CO2_perVeh="1141362.202188" HC_perVeh="296.282752" PMx_perVeh="25.391996" NOx_perVeh="507.043630" fuel_perVeh="490.649796" electricity_perVeh="0"/>
            <lane id="2_2" sampledSeconds="5246221.58" CO_abs="372058932.471441" CO2_abs="7627447615.344545" HC_abs="1870925.587021" PMx_abs="165560.385870" NOx_abs="3367968.031177" fuel_abs="3278879.141546" electricity_abs="0"
            CO_normed="26868.849687" CO2_normed="550828.714448" HC_normed="135.111978" PMx_normed="11.956216" NOx_normed="243.223368" fuel_normed="236.789667" electricity_normed="0"
            traveltime="653.24" CO_perVeh="46327.398266" CO2_perVeh="949741.486058" HC_perVeh="232.960715" PMx_perVeh="20.614965" NOx_perVeh="419.366887" fuel_perVeh="408.273869" electricity_perVeh="0"/>
        </edge>
        <edge id="3">
            <lane id="3_0" sampledSeconds="548429.10" CO_abs="38290814.477384" CO2_abs="827347413.289392" HC_abs="193590.555562" PMx_abs="17965.240045" NOx_abs="365635.515814" fuel_abs="355657.427375" electricity_abs="0"
            CO_normed="27569.386424" CO2_normed="595690.137568" HC_normed="139.385200" PMx_normed="12.934973" NOx_normed="263.257571" fuel_normed="256.073348" electricity_normed="0"
            traveltime="65.81" CO_perVeh="4594.670668" CO2_perVeh="99276.783322" HC_perVeh="23.229719" PMx_perVeh="2.155722" NOx_perVeh="43.874094" fuel_perVeh="42.676782" electricity_perVeh="0"/>
            <lane id="3_1" sampledSeconds="548233.09" CO_abs="38199219.285796" CO2_abs="826174880.032996" HC_abs="193146.940701" PMx_abs="17937.963107" NOx_abs="365111.021568" fuel_abs="355153.352845" electricity_abs="0"
            CO_normed="27503.437886" CO2_normed="594845.913624" HC_normed="139.065797" PMx_normed="12.915333" NOx_normed="262.879936" fuel_normed="255.710414" electricity_normed="0"
            traveltime="65.76" CO_perVeh="4581.626322" CO2_perVeh="99091.673802" HC_perVeh="23.166105" PMx_perVeh="2.151485" NOx_perVeh="43.791530" fuel_perVeh="42.597204" electricity_perVeh="0"/>
        </edge>
        <edge id="4">
            <lane id="4_0" sampledSeconds="91233.39" CO_abs="7742840.585606" CO2_abs="412341458.412738" HC_abs="45010.544303" PMx_abs="7924.669577" NOx_abs="173694.800663" fuel_abs="177248.073843" electricity_abs="0"
            CO_normed="5574.845222" CO2_normed="296885.850057" HC_normed="32.407592" PMx_normed="5.705762" NOx_normed="125.060256" fuel_normed="127.618613" electricity_normed="0"
            traveltime="10.09" CO_perVeh="856.269377" CO2_perVeh="45600.236751" HC_perVeh="4.977650" PMx_perVeh="0.876378" NOx_perVeh="19.208653" fuel_perVeh="19.601604" electricity_perVeh="0"/>
            <lane id="4_1" sampledSeconds="78393.73" CO_abs="6971871.922680" CO2_abs="358554679.811193" HC_abs="40227.785975" PMx_abs="6937.068463" NOx_abs="151479.536278" fuel_abs="154127.542169" electricity_abs="0"
            CO_normed="5019.747784" CO2_normed="258159.369464" HC_normed="28.964006" PMx_normed="4.994689" NOx_normed="109.065266" fuel_normed="110.971830" electricity_normed="0"
            traveltime="10.45" CO_perVeh="929.340452" CO2_perVeh="47794.820635" HC_perVeh="5.362306" PMx_perVeh="0.924701" NOx_perVeh="20.192003" fuel_perVeh="20.544979" electricity_perVeh="0"/>
        </edge>
    </interval>
</meandata>
