<?xml version="1.0" encoding="UTF-8"?>

<!-- generated on Thu Apr 16 19:11:43 2020 by SUMO Version 0.32.0
<?xml version="1.0" encoding="UTF-8"?>

<configuration xmlns:xsi="http://www.w3.org/2001/XMLSchema-instance" xsi:noNamespaceSchemaLocation="http://sumo.dlr.de/xsd/sumoConfiguration.xsd">

    <input>
        <net-file value="base.net.xml"/>
        <route-files value="base.rou.xml"/>
        <additional-files value="additional.xml"/>
    </input>

    <time>
        <begin value="0"/>
        <end value="50000"/>
    </time>

    <random_number>
        <seed value="43177"/>
    </random_number>

</configuration>
-->

<meandata xmlns:xsi="http://www.w3.org/2001/XMLSchema-instance" xsi:noNamespaceSchemaLocation="http://sumo.dlr.de/xsd/meandata_file.xsd">
    <interval begin="0.00" end="50000.00" id="mid">
        <edge id="1">
            <lane id="1_0" sampledSeconds="982779.91" CO_abs="89378218.096883" CO2_abs="2525266661.194737" HC_abs="466427.532609" PMx_abs="54461.672698" NOx_abs="1115554.397648" fuel_abs="1085530.295187" electricity_abs="0"
            CO_normed="32176.158515" CO2_normed="909095.998030" HC_normed="167.913912" PMx_normed="19.606202" NOx_normed="401.599583" fuel_normed="390.790906" electricity_normed="0"
            traveltime="95.37" CO_perVeh="8673.508777" CO2_perVeh="245058.841139" HC_perVeh="45.263414" PMx_perVeh="5.285111" NOx_perVeh="108.256475" fuel_perVeh="105.342854" electricity_perVeh="0"/>
            <lane id="1_1" sampledSeconds="959483.39" CO_abs="88111727.970863" CO2_abs="2612870320.806118" HC_abs="462851.385757" PMx_abs="56445.403078" NOx_abs="1156414.064746" fuel_abs="1123184.226662" electricity_abs="0"
            CO_normed="31720.222070" CO2_normed="940633.315490" HC_normed="166.626499" PMx_normed="20.320345" NOx_normed="416.309063" fuel_normed="404.346322" electricity_normed="0"
            traveltime="93.32" CO_perVeh="8570.012462" CO2_perVeh="254135.649449" HC_perVeh="45.018322" PMx_perVeh="5.490050" NOx_perVeh="112.476320" fuel_perVeh="109.244286" electricity_perVeh="0"/>
        </edge>
        <edge id="2">
            <lane id="2_0" sampledSeconds="500218.98" CO_abs="21888687.827623" CO2_abs="835856621.451832" HC_abs="117434.984240" PMx_abs="13973.667325" NOx_abs="333919.338516" fuel_abs="359307.947823" electricity_abs="0"
            CO_normed="1580.727707" CO2_normed="60362.765040" HC_normed="8.480761" PMx_normed="1.009131" NOx_normed="24.114536" fuel_normed="25.948016" electricity_normed="0"
            traveltime="123.84" CO_perVeh="5418.991345" CO2_perVeh="206933.363607" HC_perVeh="29.073427" PMx_perVeh="3.459467" NOx_perVeh="82.668546" fuel_perVeh="88.954015" electricity_perVeh="0"/>
            <lane id="2_1" sampledSeconds="5697130.15" CO_abs="528849236.663554" CO2_abs="11856890642.844828" HC_abs="2686483.562228" PMx_abs="268186.318859" NOx_abs="5304154.793948" fuel_abs="5096968.876051" electricity_abs="0"
            CO_normed="38191.720200" CO2_normed="856264.921048" HC_normed="194.008843" PMx_normed="19.367518" NOx_normed="383.048290" fuel_normed="368.086017" electricity_normed="0"
            traveltime="904.26" CO_perVeh="83939.933471" CO2_perVeh="1881947.713522" HC_perVeh="426.403663" PMx_perVeh="42.567031" NOx_perVeh="841.885304" fuel_perVeh="809.000370" electricity_perVeh="0"/>
            <lane id="2_2" sampledSeconds="4838772.38" CO_abs="439314244.713896" CO2_abs="12942320245.222801" HC_abs="2305506.528204" PMx_abs="279095.851668" NOx_abs="5725729.156239" fuel_abs="5563467.116685" electricity_abs="0"
            CO_normed="31725.803028" CO2_normed="934651.010688" HC_normed="166.495958" PMx_normed="20.155367" NOx_normed="413.492978" fuel_normed="401.774957" electricity_normed="0"
            traveltime="473.89" CO_perVeh="43024.775805" CO2_perVeh="1267521.901795" HC_perVeh="225.792591" PMx_perVeh="27.333592" NOx_perVeh="560.756261" fuel_perVeh="544.864930" electricity_perVeh="0"/>
        </edge>
        <edge id="3">
            <lane id="3_0" sampledSeconds="479366.94" CO_abs="44442709.022426" CO2_abs="1354849352.912003" HC_abs="234372.417761" PMx_abs="29309.952801" NOx_abs="600116.123549" fuel_abs="582402.579211" electricity_abs="0"
            CO_normed="31998.750496" CO2_normed="975491.534097" HC_normed="168.748141" PMx_normed="21.103166" NOx_normed="432.083609" fuel_normed="419.329857" electricity_normed="0"
            traveltime="45.37" CO_perVeh="4206.685819" CO2_perVeh="128242.082569" HC_perVeh="22.184317" PMx_perVeh="2.774308" NOx_perVeh="56.803468" fuel_perVeh="55.126808" electricity_perVeh="0"/>
            <lane id="3_1" sampledSeconds="474174.89" CO_abs="43729262.017546" CO2_abs="1341686964.447659" HC_abs="230817.558920" PMx_abs="29006.542702" NOx_abs="594184.292847" fuel_abs="576744.312058" electricity_abs="0"
            CO_normed="31485.068653" CO2_normed="966014.614402" HC_normed="166.188642" PMx_normed="20.884711" NOx_normed="427.812691" fuel_normed="415.255905" electricity_normed="0"
            traveltime="45.06" CO_perVeh="4155.774071" CO2_perVeh="127506.105554" HC_perVeh="21.935555" PMx_perVeh="2.756613" NOx_perVeh="56.467810" fuel_perVeh="54.810416" electricity_perVeh="0"/>
        </edge>
        <edge id="4">
            <lane id="4_0" sampledSeconds="94449.34" CO_abs="7617323.139393" CO2_abs="510247232.214894" HC_abs="45779.035761" PMx_abs="9163.911112" NOx_abs="208805.939480" fuel_abs="219332.935380" electricity_abs="0"
            CO_normed="5484.472660" CO2_normed="367378.007195" HC_normed="32.960906" PMx_normed="6.598016" NOx_normed="150.340276" fuel_normed="157.919713" electricity_normed="0"
            traveltime="8.68" CO_perVeh="699.770385" CO2_perVeh="46874.196556" HC_perVeh="4.205521" PMx_perVeh="0.841849" NOx_perVeh="19.182095" fuel_perVeh="20.149164" electricity_perVeh="0"/>
            <lane id="4_1" sampledSeconds="89262.26" CO_abs="7377527.563075" CO2_abs="488049313.539276" HC_abs="44187.582874" PMx_abs="8819.355810" NOx_abs="200155.799395" fuel_abs="209791.004965" electricity_abs="0"
            CO_normed="5311.819845" CO2_normed="351395.505748" HC_normed="31.815060" PMx_normed="6.349936" NOx_normed="144.112176" fuel_normed="151.049524" electricity_normed="0"
            traveltime="8.72" CO_perVeh="720.725722" CO2_perVeh="47678.533350" HC_perVeh="4.316775" PMx_perVeh="0.861581" NOx_perVeh="19.553628" fuel_perVeh="20.494911" electricity_perVeh="0"/>
        </edge>
    </interval>
</meandata>
