<?xml version="1.0" encoding="UTF-8"?>

<!-- generated on Thu Apr 16 18:59:53 2020 by SUMO Version 0.32.0
<?xml version="1.0" encoding="UTF-8"?>

<configuration xmlns:xsi="http://www.w3.org/2001/XMLSchema-instance" xsi:noNamespaceSchemaLocation="http://sumo.dlr.de/xsd/sumoConfiguration.xsd">

    <input>
        <net-file value="base.net.xml"/>
        <route-files value="base.rou.xml"/>
        <additional-files value="additional.xml"/>
    </input>

    <time>
        <begin value="0"/>
        <end value="50000"/>
    </time>

    <random_number>
        <seed value="49731"/>
    </random_number>

</configuration>
-->

<meandata xmlns:xsi="http://www.w3.org/2001/XMLSchema-instance" xsi:noNamespaceSchemaLocation="http://sumo.dlr.de/xsd/meandata_file.xsd">
    <interval begin="0.00" end="50000.00" id="mid">
        <edge id="1">
            <lane id="1_0" sampledSeconds="985013.51" CO_abs="89661539.532887" CO2_abs="2561501930.238750" HC_abs="468589.954536" PMx_abs="55226.607884" NOx_abs="1131992.819501" fuel_abs="1101105.777219" electricity_abs="0"
            CO_normed="32278.154232" CO2_normed="922140.694886" HC_normed="168.692384" PMx_normed="19.881579" NOx_normed="407.517415" fuel_normed="396.398080" electricity_normed="0"
            traveltime="95.43" CO_perVeh="8686.778746" CO2_perVeh="248168.842989" HC_perVeh="45.398922" PMx_perVeh="5.350581" NOx_perVeh="109.672120" fuel_perVeh="106.679657" electricity_perVeh="0"/>
            <lane id="1_1" sampledSeconds="948864.41" CO_abs="87406763.418367" CO2_abs="2615687039.779985" HC_abs="459741.576442" PMx_abs="56562.379891" NOx_abs="1158129.166433" fuel_abs="1124394.257230" electricity_abs="0"
            CO_normed="31466.434831" CO2_normed="941647.334321" HC_normed="165.506968" PMx_normed="20.362457" NOx_normed="416.926500" fuel_normed="404.781933" electricity_normed="0"
            traveltime="92.72" CO_perVeh="8541.213282" CO2_perVeh="255599.681451" HC_perVeh="44.925023" PMx_perVeh="5.527162" NOx_perVeh="113.170055" fuel_perVeh="109.873547" electricity_perVeh="0"/>
        </edge>
        <edge id="2">
            <lane id="2_0" sampledSeconds="229445.60" CO_abs="4930953.357648" CO2_abs="313052674.199521" HC_abs="28629.827097" PMx_abs="4357.409356" NOx_abs="117949.185928" fuel_abs="134569.915303" electricity_abs="0"
            CO_normed="356.096933" CO2_normed="22607.615389" HC_normed="2.067550" PMx_normed="0.314678" NOx_normed="8.517895" fuel_normed="9.718188" electricity_normed="0"
            traveltime="88.14" CO_perVeh="1894.252946" CO2_perVeh="120260.912539" HC_perVeh="10.998306" PMx_perVeh="1.673923" NOx_perVeh="45.310831" fuel_perVeh="51.695776" electricity_perVeh="0"/>
            <lane id="2_1" sampledSeconds="5445070.94" CO_abs="502082692.543903" CO2_abs="12255220112.766474" HC_abs="2574189.686705" PMx_abs="271986.274675" NOx_abs="5457356.947662" fuel_abs="5268169.305692" electricity_abs="0"
            CO_normed="36258.730053" CO2_normed="885030.940942" HC_normed="185.899356" PMx_normed="19.641938" NOx_normed="394.112036" fuel_normed="380.449539" electricity_normed="0"
            traveltime="706.14" CO_perVeh="65112.028926" CO2_perVeh="1589304.427998" HC_perVeh="333.830892" PMx_perVeh="35.272234" NOx_perVeh="707.731194" fuel_perVeh="683.196607" electricity_perVeh="0"/>
            <lane id="2_2" sampledSeconds="4787600.67" CO_abs="436017739.876546" CO2_abs="12953366784.641832" HC_abs="2290901.189536" PMx_abs="279512.404482" NOx_abs="5732034.461002" fuel_abs="5568212.210122" electricity_abs="0"
            CO_normed="31487.740493" CO2_normed="935448.754758" HC_normed="165.441209" PMx_normed="20.185449" NOx_normed="413.948326" fuel_normed="402.117632" electricity_normed="0"
            traveltime="468.95" CO_perVeh="42708.194767" CO2_perVeh="1268789.915940" HC_perVeh="224.395123" PMx_perVeh="27.378405" NOx_perVeh="561.456156" fuel_perVeh="545.409670" electricity_perVeh="0"/>
        </edge>
        <edge id="3">
            <lane id="3_0" sampledSeconds="476038.98" CO_abs="44053230.306399" CO2_abs="1350216195.697663" HC_abs="232497.024463" PMx_abs="29212.288421" NOx_abs="598095.367092" fuel_abs="580410.737493" electricity_abs="0"
            CO_normed="31718.325821" CO2_normed="972155.660902" HC_normed="167.397858" PMx_normed="21.032848" NOx_normed="430.628664" fuel_normed="417.895731" electricity_normed="0"
            traveltime="45.14" CO_perVeh="4177.763022" CO2_perVeh="128046.984402" HC_perVeh="22.048723" PMx_perVeh="2.770331" NOx_perVeh="56.720034" fuel_perVeh="55.042922" electricity_perVeh="0"/>
            <lane id="3_1" sampledSeconds="473964.72" CO_abs="43715865.824646" CO2_abs="1341815770.254066" HC_abs="230760.726867" PMx_abs="29012.401802" NOx_abs="594261.928632" fuel_abs="576799.661343" electricity_abs="0"
            CO_normed="31475.423394" CO2_normed="966107.354583" HC_normed="166.147723" PMx_normed="20.888929" NOx_normed="427.868589" fuel_normed="415.295756" electricity_normed="0"
            traveltime="45.05" CO_perVeh="4155.228409" CO2_perVeh="127540.674382" HC_perVeh="21.933994" PMx_perVeh="2.757652" NOx_perVeh="56.485077" fuel_perVeh="54.825274" electricity_perVeh="0"/>
        </edge>
        <edge id="4">
            <lane id="4_0" sampledSeconds="94427.39" CO_abs="7598471.694063" CO2_abs="509409164.406901" HC_abs="45673.199796" PMx_abs="9143.309768" NOx_abs="208419.443251" fuel_abs="218972.690400" electricity_abs="0"
            CO_normed="5470.899620" CO2_normed="366774.598373" HC_normed="32.884704" PMx_normed="6.583183" NOx_normed="150.061999" fuel_normed="157.660337" electricity_normed="0"
            traveltime="8.67" CO_perVeh="697.963887" CO2_perVeh="46792.199103" HC_perVeh="4.195349" PMx_perVeh="0.839866" NOx_perVeh="19.144540" fuel_perVeh="20.113917" electricity_perVeh="0"/>
            <lane id="4_1" sampledSeconds="89022.75" CO_abs="7376372.582378" CO2_abs="487498267.161469" HC_abs="44173.793203" PMx_abs="8816.479046" NOx_abs="199987.319571" fuel_abs="209554.128845" electricity_abs="0"
            CO_normed="5310.988259" CO2_normed="350998.752356" HC_normed="31.805131" PMx_normed="6.347865" NOx_normed="143.990870" fuel_normed="150.878973" electricity_normed="0"
            traveltime="8.72" CO_perVeh="722.793432" CO2_perVeh="47768.810741" HC_perVeh="4.328486" PMx_perVeh="0.863906" NOx_perVeh="19.596288" fuel_perVeh="20.533717" electricity_perVeh="0"/>
        </edge>
    </interval>
</meandata>
