<?xml version="1.0" encoding="UTF-8"?>

<!-- generated on Thu Apr 16 18:53:59 2020 by SUMO Version 0.32.0
<?xml version="1.0" encoding="UTF-8"?>

<configuration xmlns:xsi="http://www.w3.org/2001/XMLSchema-instance" xsi:noNamespaceSchemaLocation="http://sumo.dlr.de/xsd/sumoConfiguration.xsd">

    <input>
        <net-file value="base.net.xml"/>
        <route-files value="base.rou.xml"/>
        <additional-files value="additional.xml"/>
    </input>

    <time>
        <begin value="0"/>
        <end value="50000"/>
    </time>

    <random_number>
        <seed value="69259"/>
    </random_number>

</configuration>
-->

<meandata xmlns:xsi="http://www.w3.org/2001/XMLSchema-instance" xsi:noNamespaceSchemaLocation="http://sumo.dlr.de/xsd/meandata_file.xsd">
    <interval begin="0.00" end="50000.00" id="mid">
        <edge id="1">
            <lane id="1_0" sampledSeconds="936426.84" CO_abs="86592693.483772" CO2_abs="2619423119.347319" HC_abs="456156.494720" PMx_abs="56676.057850" NOx_abs="1160098.554391" fuel_abs="1125999.405502" electricity_abs="0"
            CO_normed="31173.369654" CO2_normed="942992.322965" HC_normed="164.216338" PMx_normed="20.403381" NOx_normed="417.635480" fuel_normed="405.359786" electricity_normed="0"
            traveltime="91.63" CO_perVeh="8473.416533" CO2_perVeh="256320.276841" HC_perVeh="44.636606" PMx_perVeh="5.545963" NOx_perVeh="113.519950" fuel_perVeh="110.183222" electricity_perVeh="0"/>
            <lane id="1_1" sampledSeconds="934629.48" CO_abs="86434036.696950" CO2_abs="2616999351.382926" HC_abs="455379.650465" PMx_abs="56626.904546" NOx_abs="1159054.495518" fuel_abs="1124957.438393" electricity_abs="0"
            CO_normed="31116.253211" CO2_normed="942119.766498" HC_normed="163.936674" PMx_normed="20.385686" NOx_normed="417.259618" fuel_normed="404.984678" electricity_normed="0"
            traveltime="91.53" CO_perVeh="8464.563036" CO2_perVeh="256285.102743" HC_perVeh="44.595739" PMx_perVeh="5.545524" NOx_perVeh="113.507250" fuel_perVeh="110.168095" electricity_perVeh="0"/>
        </edge>
        <edge id="2">
            <lane id="2_0" sampledSeconds="223.13" CO_abs="22520.770077" CO2_abs="902106.259248" HC_abs="123.981541" PMx_abs="18.924455" NOx_abs="394.267593" fuel_abs="387.779090" electricity_abs="0"
            CO_normed="1.626375" CO2_normed="65.147092" HC_normed="0.008954" PMx_normed="0.001367" NOx_normed="0.028473" fuel_normed="0.028004" electricity_normed="0"
            traveltime="223.13" CO_perVeh="22520.770077" CO2_perVeh="902106.259248" HC_perVeh="123.981541" PMx_perVeh="18.924455" NOx_perVeh="394.267593" fuel_perVeh="387.779090" electricity_perVeh="0"/>
            <lane id="2_1" sampledSeconds="4763333.51" CO_abs="435235230.605317" CO2_abs="12990569170.780930" HC_abs="2288309.345390" PMx_abs="280465.407052" NOx_abs="5749615.961449" fuel_abs="5584202.266559" electricity_abs="0"
            CO_normed="31431.230294" CO2_normed="938135.386456" HC_normed="165.254035" PMx_normed="20.254272" NOx_normed="415.218003" fuel_normed="403.272380" electricity_normed="0"
            traveltime="466.61" CO_perVeh="42634.853253" CO2_perVeh="1272532.578528" HC_perVeh="224.158630" PMx_perVeh="27.473882" NOx_perVeh="563.221944" fuel_perVeh="547.018319" electricity_perVeh="0"/>
            <lane id="2_2" sampledSeconds="4646967.63" CO_abs="427084608.350726" CO2_abs="12965717950.296844" HC_abs="2250876.534700" PMx_abs="280186.141458" NOx_abs="5740656.159848" fuel_abs="5573512.880741" electricity_abs="0"
            CO_normed="30842.619660" CO2_normed="936340.714565" HC_normed="162.550763" PMx_normed="20.234104" NOx_normed="414.570956" fuel_normed="402.500429" electricity_normed="0"
            traveltime="455.54" CO_perVeh="41866.626102" CO2_perVeh="1271014.817577" HC_perVeh="220.650907" PMx_perVeh="27.466334" NOx_perVeh="562.750098" fuel_perVeh="546.365229" electricity_perVeh="0"/>
        </edge>
        <edge id="3">
            <lane id="3_0" sampledSeconds="475362.04" CO_abs="43882559.203338" CO2_abs="1349316869.988378" HC_abs="231705.262439" PMx_abs="29205.408864" NOx_abs="597785.811543" fuel_abs="580024.007875" electricity_abs="0"
            CO_normed="31595.442626" CO2_normed="971508.146392" HC_normed="166.827789" PMx_normed="21.027894" NOx_normed="430.405784" fuel_normed="417.617286" electricity_normed="0"
            traveltime="45.20" CO_perVeh="4172.176881" CO2_perVeh="128287.610195" HC_perVeh="22.029603" PMx_perVeh="2.776733" NOx_perVeh="56.835066" fuel_perVeh="55.146345" electricity_perVeh="0"/>
            <lane id="3_1" sampledSeconds="475072.93" CO_abs="43856566.184622" CO2_abs="1348801948.371063" HC_abs="231575.155930" PMx_abs="29195.007819" NOx_abs="597562.862575" fuel_abs="579802.652040" electricity_abs="0"
            CO_normed="31576.727653" CO2_normed="971137.402827" HC_normed="166.734112" PMx_normed="21.020406" NOx_normed="430.245261" fuel_normed="417.457909" electricity_normed="0"
            traveltime="45.18" CO_perVeh="4171.076010" CO2_perVeh="128280.801231" HC_perVeh="22.024469" PMx_perVeh="2.776656" NOx_perVeh="56.832542" fuel_perVeh="55.143417" electricity_perVeh="0"/>
        </edge>
        <edge id="4">
            <lane id="4_0" sampledSeconds="91526.47" CO_abs="7480275.343171" CO2_abs="497947847.586327" HC_abs="44858.151051" PMx_abs="8969.527192" NOx_abs="203973.172370" fuel_abs="214045.958783" electricity_abs="0"
            CO_normed="5385.798247" CO2_normed="358522.450262" HC_normed="32.297869" PMx_normed="6.458060" NOx_normed="146.860684" fuel_normed="154.113090" electricity_normed="0"
            traveltime="8.69" CO_perVeh="710.317895" CO2_perVeh="47284.525064" HC_perVeh="4.259676" PMx_perVeh="0.851735" NOx_perVeh="19.369046" fuel_perVeh="20.325545" electricity_perVeh="0"/>
            <lane id="4_1" sampledSeconds="91202.31" CO_abs="7469572.859587" CO2_abs="496766915.054129" HC_abs="44783.082573" PMx_abs="8953.156441" NOx_abs="203528.442953" fuel_abs="213538.325151" electricity_abs="0"
            CO_normed="5378.092459" CO2_normed="357672.178839" HC_normed="32.243819" PMx_normed="6.446273" NOx_normed="146.540479" fuel_normed="153.747594" electricity_normed="0"
            traveltime="8.69" CO_perVeh="712.073657" CO2_perVeh="47356.741904" HC_perVeh="4.269167" PMx_perVeh="0.853504" NOx_perVeh="19.402347" fuel_perVeh="20.356588" electricity_perVeh="0"/>
        </edge>
    </interval>
</meandata>
