<?xml version="1.0" encoding="UTF-8"?>

<!-- generated on Thu Apr 16 19:26:06 2020 by SUMO Version 0.32.0
<?xml version="1.0" encoding="UTF-8"?>

<configuration xmlns:xsi="http://www.w3.org/2001/XMLSchema-instance" xsi:noNamespaceSchemaLocation="http://sumo.dlr.de/xsd/sumoConfiguration.xsd">

    <input>
        <net-file value="base.net.xml"/>
        <route-files value="base.rou.xml"/>
        <additional-files value="additional.xml"/>
    </input>

    <time>
        <begin value="0"/>
        <end value="50000"/>
    </time>

    <random_number>
        <seed value="26966"/>
    </random_number>

</configuration>
-->

<meandata xmlns:xsi="http://www.w3.org/2001/XMLSchema-instance" xsi:noNamespaceSchemaLocation="http://sumo.dlr.de/xsd/meandata_file.xsd">
    <interval begin="0.00" end="50000.00" id="mid">
        <edge id="1">
            <lane id="1_0" sampledSeconds="988218.88" CO_abs="90534670.615273" CO2_abs="2568711670.272294" HC_abs="472729.230883" PMx_abs="55437.556086" NOx_abs="1135400.003014" fuel_abs="1104205.469002" electricity_abs="0"
            CO_normed="32592.481421" CO2_normed="924736.201298" HC_normed="170.182523" PMx_normed="19.957520" NOx_normed="408.744001" fuel_normed="397.513969" electricity_normed="0"
            traveltime="96.09" CO_perVeh="8803.250600" CO2_perVeh="249771.854242" HC_perVeh="45.966411" PMx_perVeh="5.390539" NOx_perVeh="110.402023" fuel_perVeh="107.368784" electricity_perVeh="0"/>
            <lane id="1_1" sampledSeconds="952629.85" CO_abs="87750476.192863" CO2_abs="2617613820.353551" HC_abs="461342.431382" PMx_abs="56596.363384" NOx_abs="1158910.518604" fuel_abs="1125222.767250" electricity_abs="0"
            CO_normed="31590.171429" CO2_normed="942340.975327" HC_normed="166.083275" PMx_normed="20.374691" NOx_normed="417.207787" fuel_normed="405.080196" electricity_normed="0"
            traveltime="93.05" CO_perVeh="8570.888198" CO2_perVeh="255671.266692" HC_perVeh="45.060888" PMx_perVeh="5.527960" NOx_perVeh="113.194742" fuel_perVeh="109.904344" electricity_perVeh="0"/>
        </edge>
        <edge id="2">
            <lane id="2_0" sampledSeconds="228539.84" CO_abs="5082093.070665" CO2_abs="315176106.295909" HC_abs="29374.945227" PMx_abs="4413.693518" NOx_abs="118968.745256" fuel_abs="135482.758908" electricity_abs="0"
            CO_normed="367.011736" CO2_normed="22760.962541" HC_normed="2.121360" PMx_normed="0.318742" NOx_normed="8.591524" fuel_normed="9.784111" electricity_normed="0"
            traveltime="89.04" CO_perVeh="1979.979028" CO2_perVeh="122792.336146" HC_perVeh="11.444453" PMx_perVeh="1.719571" NOx_perVeh="46.350119" fuel_perVeh="52.783965" electricity_perVeh="0"/>
            <lane id="2_1" sampledSeconds="5445960.12" CO_abs="503476016.542786" CO2_abs="12272062289.040974" HC_abs="2580916.423028" PMx_abs="272425.765720" NOx_abs="5465114.227251" fuel_abs="5275409.794006" electricity_abs="0"
            CO_normed="36359.351245" CO2_normed="886247.226490" HC_normed="186.385138" PMx_normed="19.673676" NOx_normed="394.672241" fuel_normed="380.972422" electricity_normed="0"
            traveltime="706.49" CO_perVeh="65314.990584" CO2_perVeh="1592031.410673" HC_perVeh="334.817402" PMx_perVeh="35.341279" NOx_perVeh="708.978924" fuel_perVeh="684.368927" electricity_perVeh="0"/>
            <lane id="2_2" sampledSeconds="4823432.17" CO_abs="438670050.958407" CO2_abs="12961756623.256628" HC_abs="2303085.967020" PMx_abs="279594.534226" NOx_abs="5734963.085836" fuel_abs="5571820.910581" electricity_abs="0"
            CO_normed="31679.281514" CO2_normed="936054.640797" HC_normed="166.321153" PMx_normed="20.191381" NOx_normed="414.159822" fuel_normed="402.378240" electricity_normed="0"
            traveltime="472.29" CO_perVeh="42952.971077" CO2_perVeh="1269167.922738" HC_perVeh="225.509776" PMx_perVeh="27.376877" NOx_perVeh="561.546664" fuel_perVeh="545.572377" electricity_perVeh="0"/>
        </edge>
        <edge id="3">
            <lane id="3_0" sampledSeconds="475538.12" CO_abs="44011410.574416" CO2_abs="1349725882.805659" HC_abs="232296.598952" PMx_abs="29205.862064" NOx_abs="597905.735270" fuel_abs="580199.940581" electricity_abs="0"
            CO_normed="31688.215614" CO2_normed="971802.635620" HC_normed="167.253551" PMx_normed="21.028221" NOx_normed="430.492129" fuel_normed="417.743957" electricity_normed="0"
            traveltime="45.15" CO_perVeh="4178.367749" CO2_perVeh="128140.657719" HC_perVeh="22.053840" PMx_perVeh="2.772754" NOx_perVeh="56.764144" fuel_perVeh="55.083186" electricity_perVeh="0"/>
            <lane id="3_1" sampledSeconds="474199.27" CO_abs="43744311.408960" CO2_abs="1343328771.539792" HC_abs="230927.884765" PMx_abs="29051.608635" NOx_abs="594974.254778" fuel_abs="577450.019878" electricity_abs="0"
            CO_normed="31495.904214" CO2_normed="967196.715509" HC_normed="166.268077" PMx_normed="20.917158" NOx_normed="428.381463" fuel_normed="415.764014" electricity_normed="0"
            traveltime="45.07" CO_perVeh="4157.304194" CO2_perVeh="127665.201623" HC_perVeh="21.946567" PMx_perVeh="2.760962" NOx_perVeh="56.544243" fuel_perVeh="54.878802" electricity_perVeh="0"/>
        </edge>
        <edge id="4">
            <lane id="4_0" sampledSeconds="93929.58" CO_abs="7574091.836235" CO2_abs="507265880.904979" HC_abs="45511.648529" PMx_abs="9109.574574" NOx_abs="207577.281105" fuel_abs="218051.384652" electricity_abs="0"
            CO_normed="5453.346122" CO2_normed="365231.434252" HC_normed="32.768387" PMx_normed="6.558894" NOx_normed="149.455642" fuel_normed="156.996997" electricity_normed="0"
            traveltime="8.68" CO_perVeh="699.598499" CO2_perVeh="46854.785587" HC_perVeh="4.203789" PMx_perVeh="0.841427" NOx_perVeh="19.173355" fuel_perVeh="20.140820" electricity_perVeh="0"/>
            <lane id="4_1" sampledSeconds="89352.07" CO_abs="7392890.099293" CO2_abs="489018556.626244" HC_abs="44279.141601" PMx_abs="8839.958987" NOx_abs="200576.538845" fuel_abs="210207.635634" electricity_abs="0"
            CO_normed="5322.880871" CO2_normed="352093.360771" HC_normed="31.880982" PMx_normed="6.364770" NOx_normed="144.415108" fuel_normed="151.349498" electricity_normed="0"
            traveltime="8.72" CO_perVeh="721.383396" CO2_perVeh="47717.450439" HC_perVeh="4.320670" PMx_perVeh="0.862585" NOx_perVeh="19.571857" fuel_perVeh="20.511640" electricity_perVeh="0"/>
        </edge>
    </interval>
</meandata>
