<?xml version="1.0" encoding="UTF-8"?>

<!-- generated on Thu Apr 16 19:20:39 2020 by SUMO Version 0.32.0
<?xml version="1.0" encoding="UTF-8"?>

<configuration xmlns:xsi="http://www.w3.org/2001/XMLSchema-instance" xsi:noNamespaceSchemaLocation="http://sumo.dlr.de/xsd/sumoConfiguration.xsd">

    <input>
        <net-file value="base.net.xml"/>
        <route-files value="base.rou.xml"/>
        <additional-files value="additional.xml"/>
    </input>

    <time>
        <begin value="0"/>
        <end value="50000"/>
    </time>

    <random_number>
        <seed value="31359"/>
    </random_number>

</configuration>
-->

<meandata xmlns:xsi="http://www.w3.org/2001/XMLSchema-instance" xsi:noNamespaceSchemaLocation="http://sumo.dlr.de/xsd/meandata_file.xsd">
    <interval begin="0.00" end="50000.00" id="mid">
        <edge id="1">
            <lane id="1_0" sampledSeconds="935848.60" CO_abs="86545631.154822" CO2_abs="2618851765.767977" HC_abs="455929.047964" PMx_abs="56663.760385" NOx_abs="1159852.577275" fuel_abs="1125753.775376" electricity_abs="0"
            CO_normed="31156.427216" CO2_normed="942786.635676" HC_normed="164.134457" PMx_normed="20.398954" NOx_normed="417.546928" fuel_normed="405.271359" electricity_normed="0"
            traveltime="91.59" CO_perVeh="8470.391551" CO2_perVeh="256312.185553" HC_perVeh="44.622675" PMx_perVeh="5.545794" NOx_perVeh="113.517058" fuel_perVeh="110.179741" electricity_perVeh="0"/>
            <lane id="1_1" sampledSeconds="936517.36" CO_abs="86569227.214768" CO2_abs="2618311996.491782" HC_abs="456022.613138" PMx_abs="56652.076435" NOx_abs="1159616.758972" fuel_abs="1125521.782394" electricity_abs="0"
            CO_normed="31164.921797" CO2_normed="942592.318737" HC_normed="164.168141" PMx_normed="20.394748" NOx_normed="417.462033" fuel_normed="405.187842" electricity_normed="0"
            traveltime="91.68" CO_perVeh="8474.619717" CO2_perVeh="256317.391107" HC_perVeh="44.641940" PMx_perVeh="5.545906" NOx_perVeh="113.519681" fuel_perVeh="110.181983" electricity_perVeh="0"/>
        </edge>
        <edge id="2">
            <lane id="2_1" sampledSeconds="4652854.98" CO_abs="427583886.394963" CO2_abs="12971328496.788551" HC_abs="2253265.924373" PMx_abs="280289.038983" NOx_abs="5742996.127185" fuel_abs="5575924.959342" electricity_abs="0"
            CO_normed="30878.675848" CO2_normed="936745.889437" HC_normed="162.723317" PMx_normed="20.241535" NOx_normed="414.739941" fuel_normed="402.674621" electricity_normed="0"
            traveltime="455.85" CO_perVeh="41891.723597" CO2_perVeh="1270841.407650" HC_perVeh="220.759473" PMx_perVeh="27.460789" NOx_perVeh="562.659197" fuel_perVeh="546.290715" electricity_perVeh="0"/>
            <lane id="2_2" sampledSeconds="4659738.87" CO_abs="428019829.706395" CO2_abs="12972755129.471647" HC_abs="2255273.033217" PMx_abs="280314.989683" NOx_abs="5743601.993966" fuel_abs="5576538.559218" electricity_abs="0"
            CO_normed="30910.158214" CO2_normed="936848.916070" HC_normed="162.868263" PMx_normed="20.243409" NOx_normed="414.783695" fuel_normed="402.718933" electricity_normed="0"
            traveltime="456.58" CO_perVeh="41939.430021" CO2_perVeh="1271132.592858" HC_perVeh="220.982438" PMx_perVeh="27.466603" NOx_perVeh="562.785594" fuel_perVeh="546.415919" electricity_perVeh="0"/>
        </edge>
        <edge id="3">
            <lane id="3_0" sampledSeconds="475409.98" CO_abs="43885763.191029" CO2_abs="1349345398.717381" HC_abs="231720.386141" PMx_abs="29205.619739" NOx_abs="597795.276181" fuel_abs="580036.274002" electricity_abs="0"
            CO_normed="31597.749498" CO2_normed="971528.687077" HC_normed="166.838678" PMx_normed="21.028046" NOx_normed="430.412599" fuel_normed="417.626117" electricity_normed="0"
            traveltime="45.20" CO_perVeh="4172.270682" CO2_perVeh="128283.840544" HC_perVeh="22.029927" PMx_perVeh="2.776612" NOx_perVeh="56.833094" fuel_perVeh="55.144725" electricity_perVeh="0"/>
            <lane id="3_1" sampledSeconds="475552.50" CO_abs="43896642.631574" CO2_abs="1349558020.571611" HC_abs="231775.050908" PMx_abs="29211.413896" NOx_abs="597897.380289" fuel_abs="580127.674230" electricity_abs="0"
            CO_normed="31605.582695" CO2_normed="971681.774812" HC_normed="166.878037" PMx_normed="21.032218" NOx_normed="430.486114" fuel_normed="417.691925" electricity_normed="0"
            traveltime="45.22" CO_perVeh="4173.708182" CO2_perVeh="128316.450067" HC_perVeh="22.037253" PMx_perVeh="2.777431" NOx_perVeh="56.848293" fuel_perVeh="55.158743" electricity_perVeh="0"/>
        </edge>
        <edge id="4">
            <lane id="4_0" sampledSeconds="91423.77" CO_abs="7477176.074481" CO2_abs="497633106.361508" HC_abs="44836.286896" PMx_abs="8965.474963" NOx_abs="203856.290272" fuel_abs="213910.663859" electricity_abs="0"
            CO_normed="5383.566774" CO2_normed="358295.836580" HC_normed="32.282127" PMx_normed="6.455142" NOx_normed="146.776529" fuel_normed="154.015678" electricity_normed="0"
            traveltime="8.69" CO_perVeh="710.835131" CO2_perVeh="47308.648436" HC_perVeh="4.262466" PMx_perVeh="0.852324" NOx_perVeh="19.380072" fuel_perVeh="20.335915" electricity_perVeh="0"/>
            <lane id="4_1" sampledSeconds="91316.86" CO_abs="7471855.340583" CO2_abs="497164637.367640" HC_abs="44801.159597" PMx_abs="8957.833592" NOx_abs="203670.971786" fuel_abs="213709.289514" electricity_abs="0"
            CO_normed="5379.735845" CO2_normed="357958.538905" HC_normed="32.256835" PMx_normed="6.449640" NOx_normed="146.643100" fuel_normed="153.870688" electricity_normed="0"
            traveltime="8.69" CO_perVeh="711.231438" CO2_perVeh="47324.138875" HC_perVeh="4.264536" PMx_perVeh="0.852679" NOx_perVeh="19.387045" fuel_perVeh="20.342573" electricity_perVeh="0"/>
        </edge>
    </interval>
</meandata>
