<?xml version="1.0" encoding="UTF-8"?>

<!-- generated on Thu Apr 16 19:33:27 2020 by SUMO Version 0.32.0
<?xml version="1.0" encoding="UTF-8"?>

<configuration xmlns:xsi="http://www.w3.org/2001/XMLSchema-instance" xsi:noNamespaceSchemaLocation="http://sumo.dlr.de/xsd/sumoConfiguration.xsd">

    <input>
        <net-file value="base.net.xml"/>
        <route-files value="base.rou.xml"/>
        <additional-files value="additional.xml"/>
    </input>

    <time>
        <begin value="0"/>
        <end value="50000"/>
    </time>

    <random_number>
        <seed value="89316"/>
    </random_number>

</configuration>
-->

<meandata xmlns:xsi="http://www.w3.org/2001/XMLSchema-instance" xsi:noNamespaceSchemaLocation="http://sumo.dlr.de/xsd/meandata_file.xsd">
    <interval begin="0.00" end="50000.00" id="mid">
        <edge id="1">
            <lane id="1_0" sampledSeconds="983025.89" CO_abs="89428955.293958" CO2_abs="2539857493.413925" HC_abs="467011.034922" PMx_abs="54767.042101" NOx_abs="1122169.400267" fuel_abs="1091802.012902" electricity_abs="0"
            CO_normed="32194.423906" CO2_normed="914348.697629" HC_normed="168.123973" PMx_normed="19.716135" NOx_normed="403.980984" fuel_normed="393.048725" electricity_normed="0"
            traveltime="95.30" CO_perVeh="8669.777896" CO2_perVeh="246228.979007" HC_perVeh="45.274843" PMx_perVeh="5.309445" NOx_perVeh="108.789815" fuel_perVeh="105.845818" electricity_perVeh="0"/>
            <lane id="1_1" sampledSeconds="961681.27" CO_abs="88358664.561107" CO2_abs="2616187411.543255" HC_abs="464050.790740" PMx_abs="56522.666110" NOx_abs="1157925.813235" fuel_abs="1124610.237558" electricity_abs="0"
            CO_normed="31809.119242" CO2_normed="941827.468156" HC_normed="167.058285" PMx_normed="20.348160" NOx_normed="416.853293" fuel_normed="404.859686" electricity_normed="0"
            traveltime="93.64" CO_perVeh="8603.931207" CO2_perVeh="254751.434112" HC_perVeh="45.186979" PMx_perVeh="5.503899" NOx_perVeh="112.753108" fuel_perVeh="109.509001" electricity_perVeh="0"/>
        </edge>
        <edge id="2">
            <lane id="2_0" sampledSeconds="374698.25" CO_abs="12304468.306157" CO2_abs="583682978.346569" HC_abs="68049.917390" PMx_abs="8921.486721" NOx_abs="226480.202452" fuel_abs="250905.387495" electricity_abs="0"
            CO_normed="888.587480" CO2_normed="42151.629329" HC_normed="4.914337" PMx_normed="0.644280" NOx_normed="16.355642" fuel_normed="18.119547" electricity_normed="0"
            traveltime="103.55" CO_perVeh="3400.562128" CO2_perVeh="161311.336778" HC_perVeh="18.806824" PMx_perVeh="2.465614" NOx_perVeh="62.591896" fuel_perVeh="69.342237" electricity_perVeh="0"/>
            <lane id="2_1" sampledSeconds="5621646.55" CO_abs="522567244.778300" CO2_abs="11996506990.148153" HC_abs="2661228.343665" PMx_abs="269905.442636" NOx_abs="5359702.971640" fuel_abs="5156977.558232" electricity_abs="0"
            CO_normed="37738.055791" CO2_normed="866347.545928" HC_normed="192.184996" PMx_normed="19.491667" NOx_normed="387.059793" fuel_normed="372.419643" electricity_normed="0"
            traveltime="838.24" CO_perVeh="77919.420405" CO2_perVeh="1788785.808707" HC_perVeh="396.812797" PMx_perVeh="40.245300" NOx_perVeh="799.179346" fuel_perVeh="768.951186" electricity_perVeh="0"/>
            <lane id="2_2" sampledSeconds="4824305.33" CO_abs="438496286.466846" CO2_abs="12946351438.415773" HC_abs="2301903.189238" PMx_abs="279181.572242" NOx_abs="5727554.787780" fuel_abs="5565199.169974" electricity_abs="0"
            CO_normed="31666.732824" CO2_normed="934942.129956" HC_normed="166.235737" PMx_normed="20.161558" NOx_normed="413.624819" fuel_normed="401.900040" electricity_normed="0"
            traveltime="471.93" CO_perVeh="42895.445701" CO2_perVeh="1266463.439479" HC_perVeh="225.181299" PMx_perVeh="27.310649" NOx_perVeh="560.292123" fuel_perVeh="544.409853" electricity_perVeh="0"/>
        </edge>
        <edge id="3">
            <lane id="3_0" sampledSeconds="477162.98" CO_abs="44215567.351966" CO2_abs="1351994219.091169" HC_abs="233275.415321" PMx_abs="29252.130498" NOx_abs="598884.718858" fuel_abs="581175.135502" electricity_abs="0"
            CO_normed="31835.208493" CO2_normed="973435.837746" HC_normed="167.958299" PMx_normed="21.061534" NOx_normed="431.196998" fuel_normed="418.446098" electricity_normed="0"
            traveltime="45.25" CO_perVeh="4193.173058" CO2_perVeh="128216.057672" HC_perVeh="22.122620" PMx_perVeh="2.774119" NOx_perVeh="56.795093" fuel_perVeh="55.115609" electricity_perVeh="0"/>
            <lane id="3_1" sampledSeconds="474148.95" CO_abs="43727521.765212" CO2_abs="1341004482.179633" HC_abs="230791.543469" PMx_abs="28984.738431" NOx_abs="593835.490226" fuel_abs="576450.965216" electricity_abs="0"
            CO_normed="31483.815671" CO2_normed="965523.227169" HC_normed="166.169911" PMx_normed="20.869012" NOx_normed="427.561553" fuel_normed="415.044695" electricity_normed="0"
            traveltime="45.02" CO_perVeh="4151.732257" CO2_perVeh="127322.366807" HC_perVeh="21.912623" PMx_perVeh="2.751971" NOx_perVeh="56.382019" fuel_perVeh="54.731436" electricity_perVeh="0"/>
        </edge>
        <edge id="4">
            <lane id="4_0" sampledSeconds="94002.29" CO_abs="7580865.797826" CO2_abs="507514427.324225" HC_abs="45546.628069" PMx_abs="9115.161785" NOx_abs="207686.557645" fuel_abs="218158.224481" electricity_abs="0"
            CO_normed="5458.223374" CO2_normed="365410.387673" HC_normed="32.793572" PMx_normed="6.562916" NOx_normed="149.534322" fuel_normed="157.073922" electricity_normed="0"
            traveltime="8.68" CO_perVeh="700.025084" CO2_perVeh="46864.413497" HC_perVeh="4.205823" PMx_perVeh="0.841704" NOx_perVeh="19.177994" fuel_perVeh="20.144959" electricity_perVeh="0"/>
            <lane id="4_1" sampledSeconds="89719.87" CO_abs="7414321.672668" CO2_abs="490549965.997883" HC_abs="44411.774096" PMx_abs="8864.206680" NOx_abs="201180.131639" fuel_abs="210865.925846" electricity_abs="0"
            CO_normed="5338.311604" CO2_normed="353195.975518" HC_normed="31.976477" PMx_normed="6.382229" NOx_normed="144.849695" fuel_normed="151.823467" electricity_normed="0"
            traveltime="8.72" CO_perVeh="720.641000" CO2_perVeh="47679.401275" HC_perVeh="4.316638" PMx_perVeh="0.861564" NOx_perVeh="19.553866" fuel_perVeh="20.495284" electricity_perVeh="0"/>
        </edge>
    </interval>
</meandata>
