<?xml version="1.0" encoding="UTF-8"?>

<!-- generated on Fri Apr 10 20:35:41 2020 by SUMO Version 0.32.0
<?xml version="1.0" encoding="UTF-8"?>

<configuration xmlns:xsi="http://www.w3.org/2001/XMLSchema-instance" xsi:noNamespaceSchemaLocation="http://sumo.dlr.de/xsd/sumoConfiguration.xsd">

    <input>
        <net-file value="base.net.xml"/>
        <route-files value="base.rou.xml"/>
        <additional-files value="additional.xml"/>
    </input>

    <time>
        <begin value="0"/>
        <end value="50000"/>
    </time>

    <random_number>
        <seed value="70274"/>
    </random_number>

</configuration>
-->

<meandata xmlns:xsi="http://www.w3.org/2001/XMLSchema-instance" xsi:noNamespaceSchemaLocation="http://sumo.dlr.de/xsd/meandata_file.xsd">
    <interval begin="0.00" end="50000.00" id="mid">
        <edge id="1">
            <lane id="1_0" sampledSeconds="1056107.91" CO_abs="77535840.687154" CO2_abs="1597479859.798511" HC_abs="390174.477153" PMx_abs="35039.782160" NOx_abs="706823.876053" fuel_abs="686722.164375" electricity_abs="0"
            CO_normed="27912.902647" CO2_normed="575092.749527" HC_normed="140.462812" PMx_normed="12.614322" NOx_normed="254.456595" fuel_normed="247.219979" electricity_normed="0"
            traveltime="132.08" CO_perVeh="9696.600213" CO2_perVeh="199780.171496" HC_perVeh="48.795059" PMx_perVeh="4.382061" NOx_perVeh="88.395102" fuel_perVeh="85.881190" electricity_perVeh="0"/>
            <lane id="1_1" sampledSeconds="1047854.30" CO_abs="75567266.381376" CO2_abs="1553005259.929171" HC_abs="380098.846254" PMx_abs="33744.917555" NOx_abs="685816.833674" fuel_abs="667604.066380" electricity_abs="0"
            CO_normed="27204.215897" CO2_normed="559081.893575" HC_normed="136.835585" PMx_normed="12.148170" NOx_normed="246.894060" fuel_normed="240.337464" electricity_normed="0"
            traveltime="129.61" CO_perVeh="9346.739925" CO2_perVeh="192087.618904" HC_perVeh="47.013545" PMx_perVeh="4.173831" NOx_perVeh="84.827094" fuel_perVeh="82.574399" electricity_perVeh="0"/>
        </edge>
        <edge id="2">
            <lane id="2_0" sampledSeconds="360631.94" CO_abs="14811579.597635" CO2_abs="650845739.755091" HC_abs="82528.037305" PMx_abs="11195.877411" NOx_abs="261677.481981" fuel_abs="279775.562652" electricity_abs="0"
            CO_normed="1069.642659" CO2_normed="47001.898959" HC_normed="5.959898" PMx_normed="0.808529" NOx_normed="18.897471" fuel_normed="20.204454" electricity_normed="0"
            traveltime="127.64" CO_perVeh="5242.140811" CO2_perVeh="230348.491279" HC_perVeh="29.208471" PMx_perVeh="3.962465" NOx_perVeh="92.613364" fuel_perVeh="99.018669" electricity_perVeh="0"/>
            <lane id="2_1" sampledSeconds="5715194.33" CO_abs="431584473.362362" CO2_abs="7805725140.381428" HC_abs="2146565.517044" PMx_abs="178782.071742" NOx_abs="3493228.505791" fuel_abs="3355547.548287" electricity_abs="0"
            CO_normed="31167.584837" CO2_normed="563703.320068" HC_normed="155.017771" PMx_normed="12.911042" NOx_normed="252.269260" fuel_normed="242.326403" electricity_normed="0"
            traveltime="1099.60" CO_perVeh="83036.268997" CO2_perVeh="1501810.960498" HC_perVeh="412.996302" PMx_perVeh="34.397429" NOx_perVeh="672.092440" fuel_perVeh="645.602810" electricity_perVeh="0"/>
            <lane id="2_2" sampledSeconds="5240508.84" CO_abs="371602382.808102" CO2_abs="7615775037.426208" HC_abs="1868576.226142" PMx_abs="165321.601661" NOx_abs="3362874.598072" fuel_abs="3273861.423845" electricity_abs="0"
            CO_normed="26835.879200" CO2_normed="549985.759975" HC_normed="134.942315" PMx_normed="11.938972" NOx_normed="242.855538" fuel_normed="236.427304" electricity_normed="0"
            traveltime="653.83" CO_perVeh="46362.873846" CO2_perVeh="950180.175460" HC_perVeh="233.132423" PMx_perVeh="20.626306" NOx_perVeh="419.568167" fuel_perVeh="408.462462" electricity_perVeh="0"/>
        </edge>
        <edge id="3">
            <lane id="3_0" sampledSeconds="549143.02" CO_abs="38307759.547732" CO2_abs="826040410.860719" HC_abs="193637.459586" PMx_abs="17948.406639" NOx_abs="365114.731897" fuel_abs="355095.627873" electricity_abs="0"
            CO_normed="27581.586874" CO2_normed="594749.095820" HC_normed="139.418971" PMx_normed="12.922853" NOx_normed="262.882607" fuel_normed="255.668852" electricity_normed="0"
            traveltime="66.23" CO_perVeh="4619.982786" CO2_perVeh="99621.917958" HC_perVeh="23.353016" PMx_perVeh="2.164609" NOx_perVeh="44.033475" fuel_perVeh="42.825154" electricity_perVeh="0"/>
            <lane id="3_1" sampledSeconds="548430.81" CO_abs="38245985.844637" CO2_abs="826652271.362751" HC_abs="193370.823841" PMx_abs="17950.990565" NOx_abs="365335.056472" fuel_abs="355358.589763" electricity_abs="0"
            CO_normed="27537.109808" CO2_normed="595189.635381" HC_normed="139.226993" PMx_normed="12.924713" NOx_normed="263.041241" fuel_normed="255.858185" electricity_normed="0"
            traveltime="65.84" CO_perVeh="4591.696186" CO2_perVeh="99245.345563" HC_perVeh="23.215510" PMx_perVeh="2.155141" NOx_perVeh="43.861010" fuel_perVeh="42.663266" electricity_perVeh="0"/>
        </edge>
        <edge id="4">
            <lane id="4_0" sampledSeconds="95250.71" CO_abs="7999509.198038" CO2_abs="430658918.811859" HC_abs="46612.549915" PMx_abs="8260.563667" NOx_abs="181256.864014" fuel_abs="185121.926902" electricity_abs="0"
            CO_normed="5759.646623" CO2_normed="310074.421545" HC_normed="33.561036" PMx_normed="5.947606" NOx_normed="130.504942" fuel_normed="133.287787" electricity_normed="0"
            traveltime="10.00" CO_perVeh="839.813387" CO2_perVeh="45211.914400" HC_perVeh="4.893531" PMx_perVeh="0.867220" NOx_perVeh="19.028910" fuel_perVeh="19.434676" electricity_perVeh="0"/>
            <lane id="4_1" sampledSeconds="74031.06" CO_abs="6690423.661762" CO2_abs="338466159.523728" HC_abs="38470.134318" PMx_abs="6565.436501" NOx_abs="143160.443770" fuel_abs="145492.395499" electricity_abs="0"
            CO_normed="4817.105036" CO2_normed="243695.634857" HC_normed="27.698497" PMx_normed="4.727114" NOx_normed="103.075520" fuel_normed="104.754525" electricity_normed="0"
            traveltime="10.62" CO_perVeh="960.204651" CO2_perVeh="48576.412658" HC_perVeh="5.521205" PMx_perVeh="0.942267" NOx_perVeh="20.546281" fuel_perVeh="20.880961" electricity_perVeh="0"/>
        </edge>
    </interval>
</meandata>
