<?xml version="1.0" encoding="UTF-8"?>

<!-- generated on Thu Apr  9 01:14:23 2020 by SUMO Version 0.32.0
<?xml version="1.0" encoding="UTF-8"?>

<configuration xmlns:xsi="http://www.w3.org/2001/XMLSchema-instance" xsi:noNamespaceSchemaLocation="http://sumo.dlr.de/xsd/sumoConfiguration.xsd">

    <input>
        <net-file value="base.net.xml"/>
        <route-files value="base.rou.xml"/>
        <additional-files value="additional.xml"/>
    </input>

    <time>
        <begin value="0"/>
        <end value="50000"/>
    </time>

</configuration>
-->

<meandata xmlns:xsi="http://www.w3.org/2001/XMLSchema-instance" xsi:noNamespaceSchemaLocation="http://sumo.dlr.de/xsd/meandata_file.xsd">
    <interval begin="0.00" end="50000.00" id="mid">
        <edge id="1">
            <lane id="1_0" sampledSeconds="1050501.77" CO_abs="76159010.785978" CO2_abs="1589510638.606519" HC_abs="383709.735767" PMx_abs="34695.411289" NOx_abs="702715.008103" fuel_abs="683295.726409" electricity_abs="0"
            CO_normed="27417.243883" CO2_normed="572223.829898" HC_normed="138.135505" PMx_normed="12.490348" NOx_normed="252.977403" fuel_normed="245.986462" electricity_normed="0"
            traveltime="130.27" CO_perVeh="9444.461624" CO2_perVeh="197114.853146" HC_perVeh="47.583757" PMx_perVeh="4.302570" NOx_perVeh="87.143528" fuel_perVeh="84.735348" electricity_perVeh="0"/>
            <lane id="1_1" sampledSeconds="1045498.87" CO_abs="75462223.547952" CO2_abs="1550949231.160537" HC_abs="379572.718360" PMx_abs="33696.443053" NOx_abs="684829.801458" fuel_abs="666720.230298" electricity_abs="0"
            CO_normed="27166.400477" CO2_normed="558341.723218" HC_normed="136.646179" PMx_normed="12.130719" NOx_normed="246.538729" fuel_normed="240.019283" electricity_normed="0"
            traveltime="129.15" CO_perVeh="9321.759726" CO2_perVeh="191586.934510" HC_perVeh="46.888171" PMx_perVeh="4.162482" NOx_perVeh="84.596220" fuel_perVeh="82.359166" electricity_perVeh="0"/>
        </edge>
        <edge id="2">
            <lane id="2_0" sampledSeconds="5878449.06" CO_abs="454185468.391380" CO2_abs="7889479691.477141" HC_abs="2251687.000327" PMx_abs="184479.424145" NOx_abs="3549627.100854" fuel_abs="3391562.371349" electricity_abs="0"
            CO_normed="32799.752983" CO2_normed="569751.793166" HC_normed="162.609292" PMx_normed="13.322486" NOx_normed="256.342178" fuel_normed="244.927273" electricity_normed="0"
            traveltime="1446.96" CO_perVeh="111795.929241" CO2_perVeh="1941963.745464" HC_perVeh="554.243713" PMx_perVeh="45.408869" NOx_perVeh="873.726457" fuel_perVeh="834.819459" electricity_perVeh="0"/>
            <lane id="2_1" sampledSeconds="5884597.63" CO_abs="454571485.275215" CO2_abs="7896463807.133798" HC_abs="2253606.788273" PMx_abs="184636.376777" NOx_abs="3552721.327347" fuel_abs="3394564.728806" electricity_abs="0"
            CO_normed="32827.629829" CO2_normed="570256.162601" HC_normed="162.747933" PMx_normed="13.333821" NOx_normed="256.565632" fuel_normed="245.144093" electricity_normed="0"
            traveltime="1446.91" CO_perVeh="111770.222321" CO2_perVeh="1941585.743630" HC_perVeh="554.117757" PMx_perVeh="45.398468" NOx_perVeh="873.544570" fuel_perVeh="834.656961" electricity_perVeh="0"/>
            <lane id="2_2" sampledSeconds="5231064.15" CO_abs="371210432.269044" CO2_abs="7592562292.798746" HC_abs="1866253.035140" PMx_abs="164928.478567" NOx_abs="3353332.440565" fuel_abs="3263883.218907" electricity_abs="0"
            CO_normed="26807.573845" CO2_normed="548309.413321" HC_normed="134.774542" PMx_normed="11.910582" NOx_normed="242.166435" fuel_normed="235.706712" electricity_normed="0"
            traveltime="658.96" CO_perVeh="46761.757586" CO2_perVeh="956442.832771" HC_perVeh="235.093802" PMx_perVeh="20.776209" NOx_perVeh="422.422715" fuel_perVeh="411.154705" electricity_perVeh="0"/>
        </edge>
        <edge id="3">
            <lane id="3_0" sampledSeconds="549142.48" CO_abs="38342297.479924" CO2_abs="826656691.701082" HC_abs="193808.849245" PMx_abs="17961.373444" NOx_abs="365381.635996" fuel_abs="355360.558759" electricity_abs="0"
            CO_normed="27606.454186" CO2_normed="595192.818025" HC_normed="139.542371" PMx_normed="12.932189" NOx_normed="263.074778" fuel_normed="255.859602" electricity_normed="0"
            traveltime="66.22" CO_perVeh="4623.275820" CO2_perVeh="99677.435757" HC_perVeh="23.369277" PMx_perVeh="2.165764" NOx_perVeh="44.057352" fuel_perVeh="42.849020" electricity_perVeh="0"/>
            <lane id="3_1" sampledSeconds="548706.14" CO_abs="38290392.111146" CO2_abs="826359320.262631" HC_abs="193566.160446" PMx_abs="17952.603836" NOx_abs="365244.882836" fuel_abs="355232.695581" electricity_abs="0"
            CO_normed="27569.082320" CO2_normed="594978.710589" HC_normed="139.367636" PMx_normed="12.925875" NOx_normed="262.976316" fuel_normed="255.767541" electricity_normed="0"
            traveltime="66.09" CO_perVeh="4611.633991" CO2_perVeh="99525.403637" HC_perVeh="23.312801" PMx_perVeh="2.162183" NOx_perVeh="43.989513" fuel_perVeh="42.783661" electricity_perVeh="0"/>
        </edge>
        <edge id="4">
            <lane id="4_0" sampledSeconds="96032.80" CO_abs="8047179.364149" CO2_abs="433500129.667718" HC_abs="46897.351853" PMx_abs="8317.394408" NOx_abs="182467.912684" fuel_abs="186343.234475" electricity_abs="0"
            CO_normed="5793.969142" CO2_normed="312120.093361" HC_normed="33.766093" PMx_normed="5.988524" NOx_normed="131.376897" fuel_normed="134.167129" electricity_normed="0"
            traveltime="9.99" CO_perVeh="836.993793" CO2_perVeh="45088.707660" HC_perVeh="4.877832" PMx_perVeh="0.865099" NOx_perVeh="18.978639" fuel_perVeh="19.381714" electricity_perVeh="0"/>
            <lane id="4_1" sampledSeconds="73080.67" CO_abs="6632352.472250" CO2_abs="334552709.970114" HC_abs="38113.516303" PMx_abs="6493.065012" NOx_abs="141537.030769" fuel_abs="143810.178031" electricity_abs="0"
            CO_normed="4775.293780" CO2_normed="240877.951178" HC_normed="27.441732" PMx_normed="4.675007" NOx_normed="101.906662" fuel_normed="103.543328" electricity_normed="0"
            traveltime="10.66" CO_perVeh="967.508824" CO2_perVeh="48803.603311" HC_perVeh="5.559892" PMx_perVeh="0.947190" NOx_perVeh="20.647022" fuel_perVeh="20.978622" electricity_perVeh="0"/>
        </edge>
    </interval>
</meandata>
