<?xml version="1.0" encoding="UTF-8"?>

<!-- generated on Thu Apr  9 00:27:13 2020 by SUMO Version 0.32.0
<?xml version="1.0" encoding="UTF-8"?>

<configuration xmlns:xsi="http://www.w3.org/2001/XMLSchema-instance" xsi:noNamespaceSchemaLocation="http://sumo.dlr.de/xsd/sumoConfiguration.xsd">

    <input>
        <net-file value="base.net.xml"/>
        <route-files value="base.rou.xml"/>
        <additional-files value="additional.xml"/>
    </input>

    <time>
        <begin value="0"/>
        <end value="50000"/>
    </time>

</configuration>
-->

<meandata xmlns:xsi="http://www.w3.org/2001/XMLSchema-instance" xsi:noNamespaceSchemaLocation="http://sumo.dlr.de/xsd/meandata_file.xsd">
    <interval begin="0.00" end="50000.00" id="mid">
        <edge id="1">
            <lane id="1_0" sampledSeconds="1050589.05" CO_abs="75771277.825060" CO2_abs="1553299242.996356" HC_abs="381031.857074" PMx_abs="33767.641867" NOx_abs="686073.291151" fuel_abs="667730.578685" electricity_abs="0"
            CO_normed="27277.660017" CO2_normed="559187.727479" HC_normed="137.171469" PMx_normed="12.156351" NOx_normed="246.986385" fuel_normed="240.383008" electricity_normed="0"
            traveltime="130.58" CO_perVeh="9418.049260" CO2_perVeh="193068.524201" HC_perVeh="47.360648" PMx_perVeh="4.197175" NOx_perVeh="85.276007" fuel_perVeh="82.996086" electricity_perVeh="0"/>
            <lane id="1_1" sampledSeconds="1051300.62" CO_abs="75909455.857726" CO2_abs="1555347079.194846" HC_abs="381709.441967" PMx_abs="33821.368428" NOx_abs="687020.564480" fuel_abs="668610.920713" electricity_abs="0"
            CO_normed="27327.404109" CO2_normed="559924.948510" HC_normed="137.415399" PMx_normed="12.175693" NOx_normed="247.327403" fuel_normed="240.699931" electricity_normed="0"
            traveltime="130.89" CO_perVeh="9451.038689" CO2_perVeh="193647.092503" HC_perVeh="47.524392" PMx_perVeh="4.210899" NOx_perVeh="85.536879" fuel_perVeh="83.244803" electricity_perVeh="0"/>
        </edge>
        <edge id="2">
            <lane id="2_1" sampledSeconds="5253274.09" CO_abs="372380691.839205" CO2_abs="7627503516.220945" HC_abs="1872389.845711" PMx_abs="165594.881435" NOx_abs="3368138.430803" fuel_abs="3278903.401545" electricity_abs="0"
            CO_normed="26892.086071" CO2_normed="550832.751422" HC_normed="135.217722" PMx_normed="11.958708" NOx_normed="243.235674" fuel_normed="236.791419" electricity_normed="0"
            traveltime="654.55" CO_perVeh="46397.948139" CO2_perVeh="950372.885410" HC_perVeh="233.296325" PMx_perVeh="20.632817" NOx_perVeh="419.663843" fuel_perVeh="408.545323" electricity_perVeh="0"/>
            <lane id="2_2" sampledSeconds="5255094.84" CO_abs="372729607.645676" CO2_abs="7627322123.386262" HC_abs="1873970.669450" PMx_abs="165623.833063" NOx_abs="3368202.167700" fuel_abs="3278825.687587" electricity_abs="0"
            CO_normed="26917.283601" CO2_normed="550819.651839" HC_normed="135.331884" PMx_normed="11.960798" NOx_normed="243.240277" fuel_normed="236.785807" electricity_normed="0"
            traveltime="655.87" CO_perVeh="46519.199315" CO2_perVeh="951941.865692" HC_perVeh="233.884331" PMx_perVeh="20.670985" NOx_perVeh="420.374622" fuel_perVeh="409.219827" electricity_perVeh="0"/>
        </edge>
        <edge id="3">
            <lane id="3_0" sampledSeconds="548635.39" CO_abs="38226055.147895" CO2_abs="825601113.764709" HC_abs="193255.356184" PMx_abs="17930.910458" NOx_abs="364882.606286" fuel_abs="354906.742503" electricity_abs="0"
            CO_normed="27522.759706" CO2_normed="594432.801911" HC_normed="139.143856" PMx_normed="12.910256" NOx_normed="262.715477" fuel_normed="255.532855" electricity_normed="0"
            traveltime="65.92" CO_perVeh="4592.977145" CO2_perVeh="99198.492542" HC_perVeh="23.220221" PMx_perVeh="2.154454" NOx_perVeh="43.841758" fuel_perVeh="42.643128" electricity_perVeh="0"/>
            <lane id="3_1" sampledSeconds="548713.67" CO_abs="38224890.926161" CO2_abs="825157954.298965" HC_abs="193239.819491" PMx_abs="17924.250078" NOx_abs="364701.012212" fuel_abs="354716.251086" electricity_abs="0"
            CO_normed="27521.921467" CO2_normed="594113.727095" HC_normed="139.132670" PMx_normed="12.905460" NOx_normed="262.584729" fuel_normed="255.395701" electricity_normed="0"
            traveltime="66.03" CO_perVeh="4599.611647" CO2_perVeh="99291.483777" HC_perVeh="23.252601" PMx_perVeh="2.156830" NOx_perVeh="43.884573" fuel_perVeh="42.683104" electricity_perVeh="0"/>
        </edge>
        <edge id="4">
            <lane id="4_0" sampledSeconds="86489.54" CO_abs="7450099.428377" CO2_abs="392402464.612171" HC_abs="43204.652306" PMx_abs="7553.095895" NOx_abs="165411.809769" fuel_abs="168677.195327" electricity_abs="0"
            CO_normed="5364.071588" CO2_normed="282529.774521" HC_normed="31.107350" PMx_normed="5.438229" NOx_normed="119.096503" fuel_normed="121.447581" electricity_normed="0"
            traveltime="10.20" CO_perVeh="878.578163" CO2_perVeh="46275.387312" HC_perVeh="5.095055" PMx_perVeh="0.890724" NOx_perVeh="19.506747" fuel_perVeh="19.891829" electricity_perVeh="0"/>
            <lane id="4_1" sampledSeconds="82745.84" CO_abs="7244343.514108" CO2_abs="377428413.087511" HC_abs="41914.575363" PMx_abs="7284.448851" NOx_abs="159281.036556" fuel_abs="162240.516615" electricity_abs="0"
            CO_normed="5215.927330" CO2_normed="271748.457423" HC_normed="30.178494" PMx_normed="5.244803" NOx_normed="114.682346" fuel_normed="116.813172" electricity_normed="0"
            traveltime="10.31" CO_perVeh="902.670506" CO2_perVeh="47028.898585" HC_perVeh="5.222702" PMx_perVeh="0.907668" NOx_perVeh="19.846974" fuel_perVeh="20.215735" electricity_perVeh="0"/>
        </edge>
    </interval>
</meandata>
