<?xml version="1.0" encoding="UTF-8"?>

<!-- generated on Wed Apr  8 23:02:50 2020 by SUMO Version 0.32.0
<?xml version="1.0" encoding="UTF-8"?>

<configuration xmlns:xsi="http://www.w3.org/2001/XMLSchema-instance" xsi:noNamespaceSchemaLocation="http://sumo.dlr.de/xsd/sumoConfiguration.xsd">

    <input>
        <net-file value="base.net.xml"/>
        <route-files value="base.rou.xml"/>
        <additional-files value="additional.xml"/>
    </input>

    <time>
        <begin value="0"/>
        <end value="50000"/>
    </time>

</configuration>
-->

<meandata xmlns:xsi="http://www.w3.org/2001/XMLSchema-instance" xsi:noNamespaceSchemaLocation="http://sumo.dlr.de/xsd/meandata_file.xsd">
    <interval begin="0.00" end="50000.00" id="mid">
        <edge id="1">
            <lane id="1_0" sampledSeconds="1052480.13" CO_abs="76765232.048689" CO2_abs="1600605539.010434" HC_abs="386755.160127" PMx_abs="35059.100114" NOx_abs="707985.444964" fuel_abs="688065.102403" electricity_abs="0"
            CO_normed="27635.483538" CO2_normed="576217.994044" HC_normed="139.231858" PMx_normed="12.621276" NOx_normed="254.874760" fuel_normed="247.703437" electricity_normed="0"
            traveltime="130.22" CO_perVeh="9498.117822" CO2_perVeh="198041.998835" HC_perVeh="47.852993" PMx_perVeh="4.337842" NOx_perVeh="87.598630" fuel_perVeh="85.133898" electricity_perVeh="0"/>
            <lane id="1_1" sampledSeconds="1044772.32" CO_abs="75263595.094463" CO2_abs="1548812794.985196" HC_abs="378619.217480" PMx_abs="33638.269421" NOx_abs="683830.461245" fuel_abs="665801.756524" electricity_abs="0"
            CO_normed="27094.894234" CO2_normed="557572.606195" HC_normed="136.302918" PMx_normed="12.109777" NOx_normed="246.178966" fuel_normed="239.688632" electricity_normed="0"
            traveltime="128.73" CO_perVeh="9273.393499" CO2_perVeh="190832.639417" HC_perVeh="46.650509" PMx_perVeh="4.144645" NOx_perVeh="84.256259" fuel_perVeh="82.034902" electricity_perVeh="0"/>
        </edge>
        <edge id="2">
            <lane id="2_0" sampledSeconds="5732400.59" CO_abs="443204922.195958" CO2_abs="7727224503.512691" HC_abs="2197932.301884" PMx_abs="180538.744550" NOx_abs="3475842.938409" fuel_abs="3321810.239638" electricity_abs="0"
            CO_normed="32006.774722" CO2_normed="558034.267054" HC_normed="158.727308" PMx_normed="13.037903" NOx_normed="251.013733" fuel_normed="239.890007" electricity_normed="0"
            traveltime="1422.56" CO_perVeh="109986.522744" CO2_perVeh="1917601.793308" HC_perVeh="545.442794" PMx_perVeh="44.802816" NOx_perVeh="862.571373" fuel_perVeh="824.346344" electricity_perVeh="0"/>
            <lane id="2_1" sampledSeconds="5897848.09" CO_abs="455709939.721673" CO2_abs="7914461959.120262" HC_abs="2259205.898645" PMx_abs="185054.323135" NOx_abs="3560762.603255" fuel_abs="3402301.945140" electricity_abs="0"
            CO_normed="32909.845196" CO2_normed="571555.928843" HC_normed="163.152282" PMx_normed="13.364003" NOx_normed="257.146346" fuel_normed="245.702849" electricity_normed="0"
            traveltime="1444.37" CO_perVeh="111602.630198" CO2_perVeh="1938238.985482" HC_perVeh="553.275886" PMx_perVeh="45.319506" NOx_perVeh="872.025026" fuel_perVeh="833.218266" electricity_perVeh="0"/>
            <lane id="2_2" sampledSeconds="5231551.86" CO_abs="370891167.129582" CO2_abs="7598201946.536170" HC_abs="1864930.600418" PMx_abs="164963.222081" NOx_abs="3355277.868110" fuel_abs="3266307.210362" electricity_abs="0"
            CO_normed="26784.517586" CO2_normed="548716.690221" HC_normed="134.679040" PMx_normed="11.913091" NOx_normed="242.306927" fuel_normed="235.881764" electricity_normed="0"
            traveltime="655.16" CO_perVeh="46447.781836" CO2_perVeh="951544.975005" HC_perVeh="233.550694" PMx_perVeh="20.658825" NOx_perVeh="420.191227" fuel_perVeh="409.049172" electricity_perVeh="0"/>
        </edge>
        <edge id="3">
            <lane id="3_0" sampledSeconds="549009.50" CO_abs="38333505.432551" CO2_abs="827256651.772193" HC_abs="193783.409800" PMx_abs="17972.576577" NOx_abs="365642.924214" fuel_abs="355618.438330" electricity_abs="0"
            CO_normed="27600.123911" CO2_normed="595624.789276" HC_normed="139.524055" PMx_normed="12.940255" NOx_normed="263.262905" fuel_normed="256.045276" electricity_normed="0"
            traveltime="66.12" CO_perVeh="4616.596316" CO2_perVeh="99628.509527" HC_perVeh="23.337802" PMx_perVeh="2.164481" NOx_perVeh="44.035257" fuel_perVeh="42.827984" electricity_perVeh="0"/>
            <lane id="3_1" sampledSeconds="548469.22" CO_abs="38239296.645311" CO2_abs="826339795.764719" HC_abs="193332.997366" PMx_abs="17944.913662" NOx_abs="365200.638130" fuel_abs="355224.269424" electricity_abs="0"
            CO_normed="27532.293585" CO2_normed="594964.652951" HC_normed="139.199758" PMx_normed="12.920338" NOx_normed="262.944459" fuel_normed="255.761474" electricity_normed="0"
            traveltime="65.88" CO_perVeh="4593.317218" CO2_perVeh="99260.215134" HC_perVeh="23.223225" PMx_perVeh="2.155549" NOx_perVeh="43.868024" fuel_perVeh="42.669659" electricity_perVeh="0"/>
        </edge>
        <edge id="4">
            <lane id="4_0" sampledSeconds="96097.69" CO_abs="8059699.454756" CO2_abs="434258215.197767" HC_abs="46972.376252" PMx_abs="8328.726125" NOx_abs="182766.454340" fuel_abs="186669.106826" electricity_abs="0"
            CO_normed="5802.983607" CO2_normed="312665.914942" HC_normed="33.820111" PMx_normed="5.996683" NOx_normed="131.591847" fuel_normed="134.401757" electricity_normed="0"
            traveltime="9.99" CO_perVeh="838.146449" CO2_perVeh="45159.497944" HC_perVeh="4.884764" PMx_perVeh="0.866123" NOx_perVeh="19.006299" fuel_perVeh="19.412144" electricity_perVeh="0"/>
            <lane id="4_1" sampledSeconds="73294.54" CO_abs="6642371.078339" CO2_abs="335413939.559064" HC_abs="38179.294200" PMx_abs="6509.390658" NOx_abs="141896.239933" fuel_abs="144180.379267" electricity_abs="0"
            CO_normed="4782.507176" CO2_normed="241498.036483" HC_normed="27.489092" PMx_normed="4.686761" NOx_normed="102.165293" fuel_normed="103.809873" electricity_normed="0"
            traveltime="10.65" CO_perVeh="964.825695" CO2_perVeh="48719.950098" HC_perVeh="5.545665" PMx_perVeh="0.945510" NOx_perVeh="20.610884" fuel_perVeh="20.942662" electricity_perVeh="0"/>
        </edge>
    </interval>
</meandata>
