<?xml version="1.0" encoding="UTF-8"?>

<!-- generated on Thu Apr 16 20:03:39 2020 by SUMO Version 0.32.0
<?xml version="1.0" encoding="UTF-8"?>

<configuration xmlns:xsi="http://www.w3.org/2001/XMLSchema-instance" xsi:noNamespaceSchemaLocation="http://sumo.dlr.de/xsd/sumoConfiguration.xsd">

    <input>
        <net-file value="base.net.xml"/>
        <route-files value="base.rou.xml"/>
        <additional-files value="additional.xml"/>
    </input>

    <time>
        <begin value="0"/>
        <end value="50000"/>
    </time>

    <random_number>
        <seed value="27966"/>
    </random_number>

</configuration>
-->

<meandata xmlns:xsi="http://www.w3.org/2001/XMLSchema-instance" xsi:noNamespaceSchemaLocation="http://sumo.dlr.de/xsd/meandata_file.xsd">
    <interval begin="0.00" end="50000.00" id="mid">
        <edge id="1">
            <lane id="1_0" sampledSeconds="982707.44" CO_abs="89508460.629241" CO2_abs="2533131652.994782" HC_abs="467210.633843" PMx_abs="54638.957970" NOx_abs="1119148.698531" fuel_abs="1088911.054461" electricity_abs="0"
            CO_normed="32223.045827" CO2_normed="911927.395078" HC_normed="168.195828" PMx_normed="19.670025" NOx_normed="402.893531" fuel_normed="392.007980" electricity_normed="0"
            traveltime="95.34" CO_perVeh="8684.232806" CO2_perVeh="245767.884391" HC_perVeh="45.329412" PMx_perVeh="5.301146" NOx_perVeh="108.581332" fuel_perVeh="105.647634" electricity_perVeh="0"/>
            <lane id="1_1" sampledSeconds="961112.77" CO_abs="88233085.436064" CO2_abs="2612088796.091264" HC_abs="463382.176843" PMx_abs="56433.766033" NOx_abs="1156092.487497" fuel_abs="1122848.395101" electricity_abs="0"
            CO_normed="31763.910757" CO2_normed="940351.966593" HC_normed="166.817584" PMx_normed="20.316156" NOx_normed="416.193295" fuel_normed="404.225422" electricity_normed="0"
            traveltime="93.67" CO_perVeh="8599.469420" CO2_perVeh="254582.253505" HC_perVeh="45.162660" PMx_perVeh="5.500209" NOx_perVeh="112.676350" fuel_perVeh="109.436278" electricity_perVeh="0"/>
        </edge>
        <edge id="2">
            <lane id="2_0" sampledSeconds="460918.93" CO_abs="18681962.163380" CO2_abs="756694249.575562" HC_abs="101021.488048" PMx_abs="12343.744959" NOx_abs="299847.782195" fuel_abs="325278.109293" electricity_abs="0"
            CO_normed="1349.148722" CO2_normed="54645.923741" HC_normed="7.295433" PMx_normed="0.891424" NOx_normed="21.654002" fuel_normed="23.490495" electricity_normed="0"
            traveltime="116.63" CO_perVeh="4727.352073" CO2_perVeh="191476.682077" HC_perVeh="25.562847" PMx_perVeh="3.123506" NOx_perVeh="75.874580" fuel_perVeh="82.309563" electricity_perVeh="0"/>
            <lane id="2_1" sampledSeconds="5681368.72" CO_abs="528681168.114950" CO2_abs="11900372756.488935" HC_abs="2686756.562685" PMx_abs="268962.621623" NOx_abs="5322599.613873" fuel_abs="5115659.183946" electricity_abs="0"
            CO_normed="38179.582853" CO2_normed="859405.053628" HC_normed="194.028558" PMx_normed="19.423579" NOx_normed="384.380313" fuel_normed="369.435769" electricity_normed="0"
            traveltime="890.94" CO_perVeh="82906.980134" CO2_perVeh="1866198.433404" HC_perVeh="421.333095" PMx_perVeh="42.178311" NOx_perVeh="834.682011" fuel_perVeh="802.229926" electricity_perVeh="0"/>
            <lane id="2_2" sampledSeconds="4849514.12" CO_abs="439688136.933951" CO2_abs="12925945750.103989" HC_abs="2306784.337180" PMx_abs="278704.660763" NOx_abs="5718145.867755" fuel_abs="5556429.135916" electricity_abs="0"
            CO_normed="31752.804272" CO2_normed="933468.499506" HC_normed="166.588237" PMx_normed="20.127117" NOx_normed="412.945338" fuel_normed="401.266698" electricity_normed="0"
            traveltime="475.35" CO_perVeh="43098.132391" CO2_perVeh="1266998.298147" HC_perVeh="226.110482" PMx_perVeh="27.318568" NOx_perVeh="560.491373" fuel_perVeh="544.639935" electricity_perVeh="0"/>
        </edge>
        <edge id="3">
            <lane id="3_0" sampledSeconds="478620.80" CO_abs="44369503.014374" CO2_abs="1353772122.759372" HC_abs="234015.163024" PMx_abs="29288.796212" NOx_abs="599655.443430" fuel_abs="581939.479507" electricity_abs="0"
            CO_normed="31946.042170" CO2_normed="974715.928387" HC_normed="168.490917" PMx_normed="21.087933" NOx_normed="431.751919" fuel_normed="418.996425" electricity_normed="0"
            traveltime="45.35" CO_perVeh="4203.782280" CO2_perVeh="128262.948072" HC_perVeh="22.171733" PMx_perVeh="2.774963" NOx_perVeh="56.814270" fuel_perVeh="55.135774" electricity_perVeh="0"/>
            <lane id="3_1" sampledSeconds="473586.43" CO_abs="43672028.174579" CO2_abs="1340567226.866974" HC_abs="230531.691271" PMx_abs="28985.289808" NOx_abs="593708.101120" fuel_abs="576262.953702" electricity_abs="0"
            CO_normed="31443.860286" CO2_normed="965208.403344" HC_normed="165.982818" PMx_normed="20.869409" NOx_normed="427.469833" fuel_normed="414.909327" electricity_normed="0"
            traveltime="45.05" CO_perVeh="4154.056147" CO2_perVeh="127513.920502" HC_perVeh="21.928031" PMx_perVeh="2.757063" NOx_perVeh="56.473145" fuel_perVeh="54.813774" electricity_perVeh="0"/>
        </edge>
        <edge id="4">
            <lane id="4_0" sampledSeconds="94508.83" CO_abs="7601439.540859" CO2_abs="509790675.821325" HC_abs="45696.862717" PMx_abs="9149.245575" NOx_abs="208568.069772" fuel_abs="219136.685041" electricity_abs="0"
            CO_normed="5473.036469" CO2_normed="367049.286591" HC_normed="32.901741" PMx_normed="6.587457" NOx_normed="150.169010" fuel_normed="157.778413" electricity_normed="0"
            traveltime="8.67" CO_perVeh="697.502757" CO2_perVeh="46778.034619" HC_perVeh="4.193112" PMx_perVeh="0.839528" NOx_perVeh="19.138060" fuel_perVeh="20.107828" electricity_perVeh="0"/>
            <lane id="4_1" sampledSeconds="89024.03" CO_abs="7378404.549869" CO2_abs="487474218.172115" HC_abs="44180.556199" PMx_abs="8816.455271" NOx_abs="199980.260264" fuel_abs="209543.792272" electricity_abs="0"
            CO_normed="5312.451276" CO2_normed="350981.437084" HC_normed="31.810000" PMx_normed="6.347848" NOx_normed="143.985787" fuel_normed="150.871530" electricity_normed="0"
            traveltime="8.72" CO_perVeh="723.097663" CO2_perVeh="47773.399465" HC_perVeh="4.329778" PMx_perVeh="0.864029" NOx_perVeh="19.598445" fuel_perVeh="20.535690" electricity_perVeh="0"/>
        </edge>
    </interval>
</meandata>
