<?xml version="1.0" encoding="UTF-8"?>

<!-- generated on Thu Apr 16 19:55:39 2020 by SUMO Version 0.32.0
<?xml version="1.0" encoding="UTF-8"?>

<configuration xmlns:xsi="http://www.w3.org/2001/XMLSchema-instance" xsi:noNamespaceSchemaLocation="http://sumo.dlr.de/xsd/sumoConfiguration.xsd">

    <input>
        <net-file value="base.net.xml"/>
        <route-files value="base.rou.xml"/>
        <additional-files value="additional.xml"/>
    </input>

    <time>
        <begin value="0"/>
        <end value="50000"/>
    </time>

    <random_number>
        <seed value="41476"/>
    </random_number>

</configuration>
-->

<meandata xmlns:xsi="http://www.w3.org/2001/XMLSchema-instance" xsi:noNamespaceSchemaLocation="http://sumo.dlr.de/xsd/meandata_file.xsd">
    <interval begin="0.00" end="50000.00" id="mid">
        <edge id="1">
            <lane id="1_0" sampledSeconds="984353.08" CO_abs="89735870.531231" CO2_abs="2550219671.098585" HC_abs="468653.850127" PMx_abs="54994.606967" NOx_abs="1126859.314872" fuel_abs="1096256.310858" electricity_abs="0"
            CO_normed="32304.913391" CO2_normed="918079.081595" HC_normed="168.715386" PMx_normed="19.798059" NOx_normed="405.669353" fuel_normed="394.652272" electricity_normed="0"
            traveltime="95.46" CO_perVeh="8702.084076" CO2_perVeh="247306.075701" HC_perVeh="45.447436" PMx_perVeh="5.333070" NOx_perVeh="109.276529" fuel_perVeh="106.308821" electricity_perVeh="0"/>
            <lane id="1_1" sampledSeconds="955820.29" CO_abs="87855161.137527" CO2_abs="2611859513.722922" HC_abs="461670.274560" PMx_abs="56447.425993" NOx_abs="1156150.406664" fuel_abs="1122749.485122" electricity_abs="0"
            CO_normed="31627.858010" CO2_normed="940269.424940" HC_normed="166.201299" PMx_normed="20.321073" NOx_normed="416.214146" fuel_normed="404.189815" electricity_normed="0"
            traveltime="93.25" CO_perVeh="8571.398500" CO2_perVeh="254820.416121" HC_perVeh="45.041860" PMx_perVeh="5.507171" NOx_perVeh="112.797310" fuel_perVeh="109.538622" electricity_perVeh="0"/>
        </edge>
        <edge id="2">
            <lane id="2_0" sampledSeconds="314851.97" CO_abs="9379131.961059" CO2_abs="470273707.882963" HC_abs="52276.445667" PMx_abs="7051.695634" NOx_abs="181291.795003" fuel_abs="202154.374776" electricity_abs="0"
            CO_normed="677.329490" CO2_normed="33961.591743" HC_normed="3.775230" PMx_normed="0.509250" NOx_normed="13.092286" fuel_normed="14.598912" electricity_normed="0"
            traveltime="98.23" CO_perVeh="2926.242145" CO2_perVeh="146723.038920" HC_perVeh="16.309989" PMx_perVeh="2.200094" NOx_perVeh="56.562131" fuel_perVeh="63.071151" electricity_perVeh="0"/>
            <lane id="2_1" sampledSeconds="5547050.49" CO_abs="514621461.114235" CO2_abs="12104252808.023172" HC_abs="2627633.322364" PMx_abs="270820.158449" NOx_abs="5400565.552080" fuel_abs="5203285.836553" electricity_abs="0"
            CO_normed="37164.237914" CO2_normed="874128.587941" HC_normed="189.758876" PMx_normed="19.557725" NOx_normed="390.010752" fuel_normed="375.763872" electricity_normed="0"
            traveltime="779.64" CO_perVeh="72330.021863" CO2_perVeh="1701252.155989" HC_perVeh="369.313738" PMx_perVeh="38.063760" NOx_perVeh="759.049231" fuel_perVeh="731.321577" electricity_perVeh="0"/>
            <lane id="2_2" sampledSeconds="4835138.44" CO_abs="438891586.389197" CO2_abs="12934839927.172295" HC_abs="2303412.400214" PMx_abs="278943.500114" NOx_abs="5722466.828619" fuel_abs="5560251.423158" electricity_abs="0"
            CO_normed="31695.280060" CO2_normed="934110.807178" HC_normed="166.344727" PMx_normed="20.144365" NOx_normed="413.257384" fuel_normed="401.542731" electricity_normed="0"
            traveltime="473.63" CO_perVeh="42992.323181" CO2_perVeh="1267052.811432" HC_perVeh="225.634424" PMx_perVeh="27.324354" NOx_perVeh="560.553337" fuel_perVeh="544.663269" electricity_perVeh="0"/>
        </edge>
        <edge id="3">
            <lane id="3_0" sampledSeconds="476178.85" CO_abs="44099972.045256" CO2_abs="1350849552.383700" HC_abs="232724.677328" PMx_abs="29229.206136" NOx_abs="598394.838735" fuel_abs="580683.012985" electricity_abs="0"
            CO_normed="31751.979873" CO2_normed="972611.677716" HC_normed="167.561768" PMx_normed="21.045028" NOx_normed="430.844284" fuel_normed="418.091769" electricity_normed="0"
            traveltime="45.18" CO_perVeh="4184.261348" CO2_perVeh="128170.320918" HC_perVeh="22.081213" PMx_perVeh="2.773304" NOx_perVeh="56.776462" fuel_perVeh="55.095942" electricity_perVeh="0"/>
            <lane id="3_1" sampledSeconds="473574.89" CO_abs="43694606.287554" CO2_abs="1342015416.018159" HC_abs="230670.322089" PMx_abs="29021.126838" NOx_abs="594379.896313" fuel_abs="576885.451469" electricity_abs="0"
            CO_normed="31460.116527" CO2_normed="966251.099533" HC_normed="166.082632" PMx_normed="20.895211" NOx_normed="427.953525" fuel_normed="415.357525" electricity_normed="0"
            traveltime="45.03" CO_perVeh="4154.594560" CO2_perVeh="127602.247066" HC_perVeh="21.932722" PMx_perVeh="2.759403" NOx_perVeh="56.515156" fuel_perVeh="54.851739" electricity_perVeh="0"/>
        </edge>
        <edge id="4">
            <lane id="4_0" sampledSeconds="94073.17" CO_abs="7580450.806996" CO2_abs="507733036.135077" HC_abs="45550.446280" PMx_abs="9117.460058" NOx_abs="207763.644789" fuel_abs="218252.194580" electricity_abs="0"
            CO_normed="5457.924581" CO2_normed="365567.786017" HC_normed="32.796321" PMx_normed="6.564571" NOx_normed="149.589824" fuel_normed="157.141580" electricity_normed="0"
            traveltime="8.68" CO_perVeh="699.199622" CO2_perVeh="46831.877927" HC_perVeh="4.201446" PMx_perVeh="0.840969" NOx_perVeh="19.163539" fuel_perVeh="20.130973" electricity_perVeh="0"/>
            <lane id="4_1" sampledSeconds="89472.32" CO_abs="7402606.857350" CO2_abs="489537388.480263" HC_abs="44335.663033" PMx_abs="8849.269754" NOx_abs="200790.573168" fuel_abs="210430.660442" electricity_abs="0"
            CO_normed="5329.876937" CO2_normed="352466.919706" HC_normed="31.921677" PMx_normed="6.371474" NOx_normed="144.569213" fuel_normed="151.510076" electricity_normed="0"
            traveltime="8.72" CO_perVeh="721.544345" CO2_perVeh="47716.019645" HC_perVeh="4.321470" PMx_perVeh="0.862553" NOx_perVeh="19.571390" fuel_perVeh="20.511025" electricity_perVeh="0"/>
        </edge>
    </interval>
</meandata>
