<?xml version="1.0" encoding="UTF-8"?>

<!-- generated on Thu Apr 16 17:37:28 2020 by SUMO Version 0.32.0
<?xml version="1.0" encoding="UTF-8"?>

<configuration xmlns:xsi="http://www.w3.org/2001/XMLSchema-instance" xsi:noNamespaceSchemaLocation="http://sumo.dlr.de/xsd/sumoConfiguration.xsd">

    <input>
        <net-file value="base.net.xml"/>
        <route-files value="base.rou.xml"/>
        <additional-files value="additional.xml"/>
    </input>

    <time>
        <begin value="0"/>
        <end value="50000"/>
    </time>

    <random_number>
        <seed value="93956"/>
    </random_number>

</configuration>
-->

<meandata xmlns:xsi="http://www.w3.org/2001/XMLSchema-instance" xsi:noNamespaceSchemaLocation="http://sumo.dlr.de/xsd/meandata_file.xsd">
    <interval begin="0.00" end="50000.00" id="mid">
        <edge id="1">
            <lane id="1_0" sampledSeconds="984277.08" CO_abs="89524999.998735" CO2_abs="2530792554.519094" HC_abs="467224.350181" PMx_abs="54569.789432" NOx_abs="1117990.353329" fuel_abs="1087905.665868" electricity_abs="0"
            CO_normed="32229.000000" CO2_normed="911085.319627" HC_normed="168.200766" PMx_normed="19.645124" NOx_normed="402.476527" fuel_normed="391.646040" electricity_normed="0"
            traveltime="95.38" CO_perVeh="8675.496115" CO2_perVeh="245248.600665" HC_perVeh="45.276772" PMx_perVeh="5.288132" NOx_perVeh="108.339804" fuel_perVeh="105.424422" electricity_perVeh="0"/>
            <lane id="1_1" sampledSeconds="955741.75" CO_abs="87834184.762352" CO2_abs="2613522214.254158" HC_abs="461614.017458" PMx_abs="56471.150190" NOx_abs="1156801.514829" fuel_abs="1123464.176938" electricity_abs="0"
            CO_normed="31620.306514" CO2_normed="940867.997131" HC_normed="166.181046" PMx_normed="20.329614" NOx_normed="416.448545" fuel_normed="404.447104" electricity_normed="0"
            traveltime="93.00" CO_perVeh="8546.736010" CO2_perVeh="254309.691396" HC_perVeh="44.917513" PMx_perVeh="5.494945" NOx_perVeh="112.562975" fuel_perVeh="109.319074" electricity_perVeh="0"/>
        </edge>
        <edge id="2">
            <lane id="2_0" sampledSeconds="484630.52" CO_abs="21061148.062794" CO2_abs="807400448.028273" HC_abs="113032.970804" PMx_abs="13474.582259" NOx_abs="322288.268458" fuel_abs="347075.523192" electricity_abs="0"
            CO_normed="1520.965557" CO2_normed="58307.755525" HC_normed="8.162862" PMx_normed="0.973089" NOx_normed="23.274579" fuel_normed="25.064632" electricity_normed="0"
            traveltime="121.88" CO_perVeh="5296.696805" CO2_perVeh="203054.238109" HC_perVeh="28.426816" PMx_perVeh="3.388741" NOx_perVeh="81.052715" fuel_perVeh="87.286496" electricity_perVeh="0"/>
            <lane id="2_1" sampledSeconds="5687118.68" CO_abs="534927054.760570" CO2_abs="11985850831.283979" HC_abs="2717194.742369" PMx_abs="271170.570762" NOx_abs="5361926.121505" fuel_abs="5152405.719421" electricity_abs="0"
            CO_normed="38630.639862" CO2_normed="865577.993834" HC_normed="196.226702" PMx_normed="19.583030" NOx_normed="387.220342" fuel_normed="372.089480" electricity_normed="0"
            traveltime="893.39" CO_perVeh="84032.063977" CO2_perVeh="1882865.663470" HC_perVeh="426.846016" PMx_perVeh="42.598374" NOx_perVeh="842.308713" fuel_perVeh="809.395007" electricity_perVeh="0"/>
            <lane id="2_2" sampledSeconds="4796698.98" CO_abs="436562675.612819" CO2_abs="12943826672.565243" HC_abs="2293105.644125" PMx_abs="279216.404200" NOx_abs="5727101.319318" fuel_abs="5564112.130493" electricity_abs="0"
            CO_normed="31527.093926" CO2_normed="934759.799824" HC_normed="165.600408" PMx_normed="20.164073" NOx_normed="413.592071" fuel_normed="401.821538" electricity_normed="0"
            traveltime="469.54" CO_perVeh="42734.256812" CO2_perVeh="1267045.590587" HC_perVeh="224.467576" PMx_perVeh="27.331942" NOx_perVeh="560.614620" fuel_perVeh="544.659931" electricity_perVeh="0"/>
        </edge>
        <edge id="3">
            <lane id="3_0" sampledSeconds="478769.97" CO_abs="44387034.458568" CO2_abs="1354302229.884407" HC_abs="234107.771041" PMx_abs="29301.561684" NOx_abs="599897.898053" fuel_abs="582167.352325" electricity_abs="0"
            CO_normed="31958.664810" CO2_normed="975097.605517" HC_normed="168.557595" PMx_normed="21.097124" NOx_normed="431.926487" fuel_normed="419.160494" electricity_normed="0"
            traveltime="45.36" CO_perVeh="4204.901270" CO2_perVeh="128296.635184" HC_perVeh="22.177649" PMx_perVeh="2.775815" NOx_perVeh="56.829916" fuel_perVeh="55.150254" electricity_perVeh="0"/>
            <lane id="3_1" sampledSeconds="474700.49" CO_abs="43779393.709600" CO2_abs="1343118813.349825" HC_abs="231080.302646" PMx_abs="29041.294235" NOx_abs="594842.124126" fuel_abs="577359.811084" electricity_abs="0"
            CO_normed="31521.163471" CO2_normed="967045.545612" HC_normed="166.377818" PMx_normed="20.909732" NOx_normed="428.286329" fuel_normed="415.699064" electricity_normed="0"
            traveltime="45.10" CO_perVeh="4159.758506" CO2_perVeh="127618.256796" HC_perVeh="21.956409" PMx_perVeh="2.759398" NOx_perVeh="56.519732" fuel_perVeh="54.858626" electricity_perVeh="0"/>
        </edge>
        <edge id="4">
            <lane id="4_0" sampledSeconds="94502.33" CO_abs="7619412.147716" CO2_abs="510411895.568438" HC_abs="45792.555467" PMx_abs="9166.163213" NOx_abs="208867.690836" fuel_abs="219403.717918" electricity_abs="0"
            CO_normed="5485.976746" CO2_normed="367496.564809" HC_normed="32.970640" PMx_normed="6.599638" NOx_normed="150.384737" fuel_normed="157.970677" electricity_normed="0"
            traveltime="8.68" CO_perVeh="699.603829" CO2_perVeh="46865.310572" HC_perVeh="4.204609" PMx_perVeh="0.841624" NOx_perVeh="19.177941" fuel_perVeh="20.145344" electricity_perVeh="0"/>
            <lane id="4_1" sampledSeconds="89208.20" CO_abs="7375119.980902" CO2_abs="487773007.972490" HC_abs="44171.355327" PMx_abs="8814.887923" NOx_abs="200047.669571" fuel_abs="209672.233974" electricity_abs="0"
            CO_normed="5310.086386" CO2_normed="351196.565740" HC_normed="31.803376" PMx_normed="6.346719" NOx_normed="144.034322" fuel_normed="150.964008" electricity_normed="0"
            traveltime="8.72" CO_perVeh="721.068003" CO2_perVeh="47689.733800" HC_perVeh="4.318649" PMx_perVeh="0.861835" NOx_perVeh="19.558729" fuel_perVeh="20.499726" electricity_perVeh="0"/>
        </edge>
    </interval>
</meandata>
